Program Version,EnergyPlus, Version 8.4.0-09f5359d8a, YMD=2018.07.27 14:42
1,5,Environment Title[],Latitude[deg],Longitude[deg],Time Zone[],Elevation[m]
2,6,Day of Simulation[],Month[],Day of Month[],DST Indicator[1=yes 0=no],Hour[],StartMinute[],EndMinute[],DayType
3,3,Cumulative Day of Simulation[],Month[],Day of Month[],DST Indicator[1=yes 0=no],DayType  ! When Daily Report Variables Requested
4,2,Cumulative Days of Simulation[],Month[]  ! When Monthly Report Variables Requested
5,1,Cumulative Days of Simulation[] ! When Run Period Report Variables Requested
6,1,Environment,Site Outdoor Air Drybulb Temperature [C] !TimeStep
7,1,ZONE-VAV-143,Zone Total Internal Total Heating Rate [W] !TimeStep
8,1,ZONE-VAV-142,Zone Total Internal Total Heating Rate [W] !TimeStep
9,1,ZONE-HTR-001,Zone Total Internal Total Heating Rate [W] !TimeStep
10,1,ZONE-VAV-136,Zone Total Internal Total Heating Rate [W] !TimeStep
11,1,ZONE-VAV-127B,Zone Total Internal Total Heating Rate [W] !TimeStep
12,1,ZONE-VAV-127A,Zone Total Internal Total Heating Rate [W] !TimeStep
13,1,ZONE-VAV-131,Zone Total Internal Total Heating Rate [W] !TimeStep
14,1,ZONE-VAV-129,Zone Total Internal Total Heating Rate [W] !TimeStep
15,1,ZONE-VAV-150,Zone Total Internal Total Heating Rate [W] !TimeStep
16,1,ZONE-VAV-123A,Zone Total Internal Total Heating Rate [W] !TimeStep
17,1,ZONE-VAV-123B,Zone Total Internal Total Heating Rate [W] !TimeStep
18,1,ZONE-AHU-005,Zone Total Internal Total Heating Rate [W] !TimeStep
19,1,ZONE-VAV-118,Zone Total Internal Total Heating Rate [W] !TimeStep
20,1,ZONE-VAV-120,Zone Total Internal Total Heating Rate [W] !TimeStep
21,1,ZONE-VAV-119,Zone Total Internal Total Heating Rate [W] !TimeStep
22,1,ZONE-VAV-RESTROOM,Zone Total Internal Total Heating Rate [W] !TimeStep
23,1,ZONE-AHU-004,Zone Total Internal Total Heating Rate [W] !TimeStep
24,1,ZONE-VAV-102,Zone Total Internal Total Heating Rate [W] !TimeStep
25,1,ZONE-FCU-001,Zone Total Internal Total Heating Rate [W] !TimeStep
26,1,ZONE-AHU-002,Zone Total Internal Total Heating Rate [W] !TimeStep
27,1,ZONE-VAV-105,Zone Total Internal Total Heating Rate [W] !TimeStep
28,1,ZONE-FCU-003,Zone Total Internal Total Heating Rate [W] !TimeStep
29,1,ZONE-VAV-112,Zone Total Internal Total Heating Rate [W] !TimeStep
30,1,ZONE-HTR-002,Zone Total Internal Total Heating Rate [W] !TimeStep
31,1,ZONE-HTR-003,Zone Total Internal Total Heating Rate [W] !TimeStep
32,1,ZONE-VAV-104,Zone Total Internal Total Heating Rate [W] !TimeStep
33,1,ZONE-VAV-116,Zone Total Internal Total Heating Rate [W] !TimeStep
34,1,ZONE-VAV-108,Zone Total Internal Total Heating Rate [W] !TimeStep
35,1,ZONE-FCU-002,Zone Total Internal Total Heating Rate [W] !TimeStep
36,1,ZONE-HTR-004,Zone Total Internal Total Heating Rate [W] !TimeStep
37,1,ZONE-VAV-CORRIDOR,Zone Total Internal Total Heating Rate [W] !TimeStep
38,1,ZONE-VAV-133,Zone Total Internal Total Heating Rate [W] !TimeStep
39,1,ZONE-VAV-107,Zone Total Internal Total Heating Rate [W] !TimeStep
40,1,ZONE-VAV-CORRIDOR LIGHTS,Lights Electric Power [W] !TimeStep
102,1,ZONE-VAV-102 LIGHTS,Lights Electric Power [W] !TimeStep
124,1,ZONE-VAV-104 LIGHTS,Lights Electric Power [W] !TimeStep
146,1,ZONE-VAV-105 LIGHTS,Lights Electric Power [W] !TimeStep
168,1,ZONE-VAV-107 LIGHTS,Lights Electric Power [W] !TimeStep
190,1,ZONE-VAV-108 LIGHTS,Lights Electric Power [W] !TimeStep
212,1,ZONE-VAV-112 LIGHTS,Lights Electric Power [W] !TimeStep
234,1,ZONE-VAV-116 LIGHTS,Lights Electric Power [W] !TimeStep
256,1,ZONE-VAV-118 LIGHTS,Lights Electric Power [W] !TimeStep
278,1,ZONE-VAV-119 LIGHTS,Lights Electric Power [W] !TimeStep
300,1,ZONE-VAV-120 LIGHTS,Lights Electric Power [W] !TimeStep
322,1,ZONE-VAV-123A LIGHTS,Lights Electric Power [W] !TimeStep
344,1,ZONE-VAV-123B LIGHTS,Lights Electric Power [W] !TimeStep
366,1,ZONE-VAV-127A LIGHTS,Lights Electric Power [W] !TimeStep
388,1,ZONE-VAV-127B LIGHTS,Lights Electric Power [W] !TimeStep
410,1,ZONE-VAV-129 LIGHTS,Lights Electric Power [W] !TimeStep
432,1,ZONE-VAV-131 LIGHTS,Lights Electric Power [W] !TimeStep
454,1,ZONE-VAV-133 LIGHTS,Lights Electric Power [W] !TimeStep
476,1,ZONE-VAV-142 LIGHTS,Lights Electric Power [W] !TimeStep
498,1,ZONE-VAV-143 LIGHTS,Lights Electric Power [W] !TimeStep
520,1,ZONE-VAV-150 LIGHTS,Lights Electric Power [W] !TimeStep
542,1,ZONE-AHU-002 LIGHTS,Lights Electric Power [W] !TimeStep
564,1,ZONE-AHU-004 LIGHTS,Lights Electric Power [W] !TimeStep
586,1,ZONE-AHU-005 LIGHTS,Lights Electric Power [W] !TimeStep
608,1,ZONE-FCU-001 LIGHTS,Lights Electric Power [W] !TimeStep
630,1,ZONE-FCU-002 LIGHTS,Lights Electric Power [W] !TimeStep
652,1,ZONE-FCU-003 LIGHTS,Lights Electric Power [W] !TimeStep
674,1,ZONE-HTR-001 LIGHTS,Lights Electric Power [W] !TimeStep
696,1,ZONE-HTR-002 LIGHTS,Lights Electric Power [W] !TimeStep
718,1,ZONE-HTR-003 LIGHTS,Lights Electric Power [W] !TimeStep
740,1,ZONE-HTR-004 LIGHTS,Lights Electric Power [W] !TimeStep
762,1,ZONE-VAV-RESTROOM LIGHTS,Lights Electric Power [W] !TimeStep
784,1,ZONE-VAV-136 LIGHTS,Lights Electric Power [W] !TimeStep
1189,1,ZONE-VAV-143,Zone Windows Total Transmitted Solar Radiation Rate [W] !TimeStep
1190,1,ZONE-VAV-142,Zone Windows Total Transmitted Solar Radiation Rate [W] !TimeStep
1191,1,ZONE-HTR-001,Zone Windows Total Transmitted Solar Radiation Rate [W] !TimeStep
1192,1,ZONE-VAV-136,Zone Windows Total Transmitted Solar Radiation Rate [W] !TimeStep
1193,1,ZONE-VAV-127B,Zone Windows Total Transmitted Solar Radiation Rate [W] !TimeStep
1194,1,ZONE-VAV-127A,Zone Windows Total Transmitted Solar Radiation Rate [W] !TimeStep
1195,1,ZONE-VAV-131,Zone Windows Total Transmitted Solar Radiation Rate [W] !TimeStep
1196,1,ZONE-VAV-129,Zone Windows Total Transmitted Solar Radiation Rate [W] !TimeStep
1197,1,ZONE-VAV-150,Zone Windows Total Transmitted Solar Radiation Rate [W] !TimeStep
1198,1,ZONE-VAV-123A,Zone Windows Total Transmitted Solar Radiation Rate [W] !TimeStep
1199,1,ZONE-VAV-123B,Zone Windows Total Transmitted Solar Radiation Rate [W] !TimeStep
1200,1,ZONE-AHU-005,Zone Windows Total Transmitted Solar Radiation Rate [W] !TimeStep
1201,1,ZONE-VAV-118,Zone Windows Total Transmitted Solar Radiation Rate [W] !TimeStep
1202,1,ZONE-VAV-120,Zone Windows Total Transmitted Solar Radiation Rate [W] !TimeStep
1203,1,ZONE-VAV-119,Zone Windows Total Transmitted Solar Radiation Rate [W] !TimeStep
1204,1,ZONE-VAV-RESTROOM,Zone Windows Total Transmitted Solar Radiation Rate [W] !TimeStep
1205,1,ZONE-AHU-004,Zone Windows Total Transmitted Solar Radiation Rate [W] !TimeStep
1206,1,ZONE-VAV-102,Zone Windows Total Transmitted Solar Radiation Rate [W] !TimeStep
1207,1,ZONE-FCU-001,Zone Windows Total Transmitted Solar Radiation Rate [W] !TimeStep
1208,1,ZONE-AHU-002,Zone Windows Total Transmitted Solar Radiation Rate [W] !TimeStep
1209,1,ZONE-VAV-105,Zone Windows Total Transmitted Solar Radiation Rate [W] !TimeStep
1210,1,ZONE-FCU-003,Zone Windows Total Transmitted Solar Radiation Rate [W] !TimeStep
1211,1,ZONE-VAV-112,Zone Windows Total Transmitted Solar Radiation Rate [W] !TimeStep
1212,1,ZONE-HTR-002,Zone Windows Total Transmitted Solar Radiation Rate [W] !TimeStep
1213,1,ZONE-HTR-003,Zone Windows Total Transmitted Solar Radiation Rate [W] !TimeStep
1214,1,ZONE-VAV-104,Zone Windows Total Transmitted Solar Radiation Rate [W] !TimeStep
1215,1,ZONE-VAV-116,Zone Windows Total Transmitted Solar Radiation Rate [W] !TimeStep
1216,1,ZONE-VAV-108,Zone Windows Total Transmitted Solar Radiation Rate [W] !TimeStep
1217,1,ZONE-FCU-002,Zone Windows Total Transmitted Solar Radiation Rate [W] !TimeStep
1218,1,ZONE-HTR-004,Zone Windows Total Transmitted Solar Radiation Rate [W] !TimeStep
1219,1,ZONE-VAV-CORRIDOR,Zone Windows Total Transmitted Solar Radiation Rate [W] !TimeStep
1220,1,ZONE-VAV-133,Zone Windows Total Transmitted Solar Radiation Rate [W] !TimeStep
1221,1,ZONE-VAV-107,Zone Windows Total Transmitted Solar Radiation Rate [W] !TimeStep
1222,1,ZONE-VAV-143,Zone Mean Air Temperature [C] !TimeStep
1223,1,ZONE-VAV-142,Zone Mean Air Temperature [C] !TimeStep
1224,1,ZONE-VAV-136,Zone Mean Air Temperature [C] !TimeStep
1225,1,ZONE-VAV-127B,Zone Mean Air Temperature [C] !TimeStep
1226,1,ZONE-VAV-127A,Zone Mean Air Temperature [C] !TimeStep
1227,1,ZONE-VAV-131,Zone Mean Air Temperature [C] !TimeStep
1228,1,ZONE-VAV-129,Zone Mean Air Temperature [C] !TimeStep
1229,1,ZONE-VAV-150,Zone Mean Air Temperature [C] !TimeStep
1230,1,ZONE-VAV-123A,Zone Mean Air Temperature [C] !TimeStep
1231,1,ZONE-VAV-123B,Zone Mean Air Temperature [C] !TimeStep
1232,1,ZONE-VAV-118,Zone Mean Air Temperature [C] !TimeStep
1233,1,ZONE-VAV-120,Zone Mean Air Temperature [C] !TimeStep
1234,1,ZONE-VAV-119,Zone Mean Air Temperature [C] !TimeStep
1235,1,ZONE-VAV-RESTROOM,Zone Mean Air Temperature [C] !TimeStep
1236,1,ZONE-AHU-004,Zone Mean Air Temperature [C] !TimeStep
1237,1,ZONE-VAV-102,Zone Mean Air Temperature [C] !TimeStep
1238,1,ZONE-AHU-002,Zone Mean Air Temperature [C] !TimeStep
1239,1,ZONE-VAV-105,Zone Mean Air Temperature [C] !TimeStep
1240,1,ZONE-VAV-112,Zone Mean Air Temperature [C] !TimeStep
1241,1,ZONE-VAV-104,Zone Mean Air Temperature [C] !TimeStep
1242,1,ZONE-VAV-116,Zone Mean Air Temperature [C] !TimeStep
1243,1,ZONE-VAV-108,Zone Mean Air Temperature [C] !TimeStep
1244,1,ZONE-VAV-CORRIDOR,Zone Mean Air Temperature [C] !TimeStep
1245,1,ZONE-VAV-133,Zone Mean Air Temperature [C] !TimeStep
1246,1,ZONE-VAV-107,Zone Mean Air Temperature [C] !TimeStep
1257,1,EMS,currentMinuteV [] !TimeStep
1258,1,EMS,currentHourV [] !TimeStep
1259,1,EMS,currentDayOfMonthV [] !TimeStep
1260,1,EMS,currentMonthV [] !TimeStep
1333,1,ZONE-VAV-143,Zone Air System Sensible Cooling Rate [W] !TimeStep
1334,1,ZONE-VAV-143,Zone Thermostat Cooling Setpoint Temperature [C] !TimeStep
1367,1,ZONE-VAV-142,Zone Air System Sensible Cooling Rate [W] !TimeStep
1368,1,ZONE-VAV-142,Zone Thermostat Cooling Setpoint Temperature [C] !TimeStep
1433,1,ZONE-VAV-136,Zone Air System Sensible Cooling Rate [W] !TimeStep
1434,1,ZONE-VAV-136,Zone Thermostat Cooling Setpoint Temperature [C] !TimeStep
1467,1,ZONE-VAV-127B,Zone Air System Sensible Cooling Rate [W] !TimeStep
1468,1,ZONE-VAV-127B,Zone Thermostat Cooling Setpoint Temperature [C] !TimeStep
1501,1,ZONE-VAV-127A,Zone Air System Sensible Cooling Rate [W] !TimeStep
1502,1,ZONE-VAV-127A,Zone Thermostat Cooling Setpoint Temperature [C] !TimeStep
1535,1,ZONE-VAV-131,Zone Air System Sensible Cooling Rate [W] !TimeStep
1536,1,ZONE-VAV-131,Zone Thermostat Cooling Setpoint Temperature [C] !TimeStep
1569,1,ZONE-VAV-129,Zone Air System Sensible Cooling Rate [W] !TimeStep
1570,1,ZONE-VAV-129,Zone Thermostat Cooling Setpoint Temperature [C] !TimeStep
1603,1,ZONE-VAV-150,Zone Air System Sensible Cooling Rate [W] !TimeStep
1604,1,ZONE-VAV-150,Zone Thermostat Cooling Setpoint Temperature [C] !TimeStep
1637,1,ZONE-VAV-123A,Zone Air System Sensible Cooling Rate [W] !TimeStep
1638,1,ZONE-VAV-123A,Zone Thermostat Cooling Setpoint Temperature [C] !TimeStep
1671,1,ZONE-VAV-123B,Zone Air System Sensible Cooling Rate [W] !TimeStep
1672,1,ZONE-VAV-123B,Zone Thermostat Cooling Setpoint Temperature [C] !TimeStep
1737,1,ZONE-VAV-118,Zone Air System Sensible Cooling Rate [W] !TimeStep
1738,1,ZONE-VAV-118,Zone Thermostat Cooling Setpoint Temperature [C] !TimeStep
1771,1,ZONE-VAV-120,Zone Air System Sensible Cooling Rate [W] !TimeStep
1772,1,ZONE-VAV-120,Zone Thermostat Cooling Setpoint Temperature [C] !TimeStep
1805,1,ZONE-VAV-119,Zone Air System Sensible Cooling Rate [W] !TimeStep
1806,1,ZONE-VAV-119,Zone Thermostat Cooling Setpoint Temperature [C] !TimeStep
1839,1,ZONE-VAV-RESTROOM,Zone Air System Sensible Cooling Rate [W] !TimeStep
1840,1,ZONE-VAV-RESTROOM,Zone Thermostat Cooling Setpoint Temperature [C] !TimeStep
1873,1,ZONE-AHU-004,Zone Air System Sensible Cooling Rate [W] !TimeStep
1874,1,ZONE-AHU-004,Zone Thermostat Cooling Setpoint Temperature [C] !TimeStep
1907,1,ZONE-VAV-102,Zone Air System Sensible Cooling Rate [W] !TimeStep
1908,1,ZONE-VAV-102,Zone Thermostat Cooling Setpoint Temperature [C] !TimeStep
1973,1,ZONE-AHU-002,Zone Air System Sensible Cooling Rate [W] !TimeStep
1974,1,ZONE-AHU-002,Zone Thermostat Cooling Setpoint Temperature [C] !TimeStep
2007,1,ZONE-VAV-105,Zone Air System Sensible Cooling Rate [W] !TimeStep
2008,1,ZONE-VAV-105,Zone Thermostat Cooling Setpoint Temperature [C] !TimeStep
2073,1,ZONE-VAV-112,Zone Air System Sensible Cooling Rate [W] !TimeStep
2074,1,ZONE-VAV-112,Zone Thermostat Cooling Setpoint Temperature [C] !TimeStep
2171,1,ZONE-VAV-104,Zone Air System Sensible Cooling Rate [W] !TimeStep
2172,1,ZONE-VAV-104,Zone Thermostat Cooling Setpoint Temperature [C] !TimeStep
2205,1,ZONE-VAV-116,Zone Air System Sensible Cooling Rate [W] !TimeStep
2206,1,ZONE-VAV-116,Zone Thermostat Cooling Setpoint Temperature [C] !TimeStep
2239,1,ZONE-VAV-108,Zone Air System Sensible Cooling Rate [W] !TimeStep
2240,1,ZONE-VAV-108,Zone Thermostat Cooling Setpoint Temperature [C] !TimeStep
2337,1,ZONE-VAV-CORRIDOR,Zone Air System Sensible Cooling Rate [W] !TimeStep
2338,1,ZONE-VAV-CORRIDOR,Zone Thermostat Cooling Setpoint Temperature [C] !TimeStep
2371,1,ZONE-VAV-133,Zone Air System Sensible Cooling Rate [W] !TimeStep
2372,1,ZONE-VAV-133,Zone Thermostat Cooling Setpoint Temperature [C] !TimeStep
2405,1,ZONE-VAV-107,Zone Air System Sensible Cooling Rate [W] !TimeStep
2406,1,ZONE-VAV-107,Zone Thermostat Cooling Setpoint Temperature [C] !TimeStep
2500,1,Whole Building,Facility Total Building Electric Demand Power [W] !TimeStep
2501,1,Whole Building,Facility Total HVAC Electric Demand Power [W] !TimeStep
2502,1,Whole Building,Facility Total Electric Demand Power [W] !TimeStep
2503,1,WORK EFF SCH,Schedule Value [] !TimeStep
2504,1,AIR VELO SCH,Schedule Value [] !TimeStep
2505,1,CLOTHING SCH,Schedule Value [] !TimeStep
2506,1,REHEAT COIL AVAILABILITY,Schedule Value [] !TimeStep
2507,1,HVACOPERATIONSCHD,Schedule Value [] !TimeStep
2508,1,BLDG LIGHT SCH,Schedule Value [] !TimeStep
2509,1,OLD BLDG EQUIP SCH,Schedule Value [] !TimeStep
2510,1,BLDG EQUIP SCH,Schedule Value [] !TimeStep
2511,1,BLDG OCC SCH,Schedule Value [] !TimeStep
2512,1,BLDG SWH SCH,Schedule Value [] !TimeStep
2513,1,ACTIVITY SCH,Schedule Value [] !TimeStep
2514,1,MINOA MOTORIZEDDAMPER SCHED,Schedule Value [] !TimeStep
2515,1,DUAL ZONE CONTROL TYPE SCHED,Schedule Value [] !TimeStep
2516,1,INFIL SCH PNNL,Schedule Value [] !TimeStep
2517,1,CW-LOOP-TEMP-SCHEDULE,Schedule Value [] !TimeStep
2518,1,HW-LOOP-TEMP-SCHEDULE,Schedule Value [] !TimeStep
2519,1,FRONTENTRY FANSCHED,Schedule Value [] !TimeStep
2520,1,FRONTENTRY COILSCHED,Schedule Value [] !TimeStep
2521,1,PLANTONSCHED,Schedule Value [] !TimeStep
2522,1,HTGSETP SCH,Schedule Value [] !TimeStep
2523,1,CLGSETP SCH CONSTANTON,Schedule Value [] !TimeStep
2524,1,CLGSETP SCH,Schedule Value [] !TimeStep
2525,1,CLGTEMPSETPOINT,Schedule Value [] !TimeStep
2526,1,FCU-CLGSETP SCH,Schedule Value [] !TimeStep
2527,1,PLANT LOOP HIGH TEMP SCHEDULE,Schedule Value [] !TimeStep
2528,1,PLANT LOOP LOW TEMP SCHEDULE,Schedule Value [] !TimeStep
2529,1,OLD BLDG CONTROLROOM EQUIP SCH,Schedule Value [] !TimeStep
2530,1,BLDG CONTROLROOM EQUIP SCH,Schedule Value [] !TimeStep
2531,1,SEASONAL-RESET-SUPPLY-AIR-TEMP-SCH,Schedule Value [] !TimeStep
2532,1,CLGSETP SCH BASE EXTENDEDHVAC2,Schedule Value [] !TimeStep
2533,1,CLGSETP SCH BASE EXTENDEDHVAC3,Schedule Value [] !TimeStep
2534,1,CLGSETP SCH BASE EXTENDEDHVAC,Schedule Value [] !TimeStep
2535,1,DR RESPONSE,Schedule Value [] !TimeStep
2536,1,CPP EVENT,Schedule Value [] !TimeStep
2537,1,DUTYCYCLETIMESTEPCOUNT,Schedule Value [] !TimeStep
2538,1,PREVIOUSFLOW1,Schedule Value [] !TimeStep
2539,1,PREVIOUSFLOW2,Schedule Value [] !TimeStep
2540,1,ALWAYS ON,Schedule Value [] !TimeStep
2541,1,HVAC SCHEDULE REST OF THE BUILDING,Schedule Value [] !TimeStep
2694,1,ZONE-VAV-CORRIDOR VAV BOX COMPONENT,Zone Air Terminal VAV Damper Position [] !TimeStep
2695,1,ZONE-VAV-RESTROOM VAV BOX COMPONENT,Zone Air Terminal VAV Damper Position [] !TimeStep
2696,1,ZONE-VAV-102 VAV BOX COMPONENT,Zone Air Terminal VAV Damper Position [] !TimeStep
2697,1,ZONE-VAV-104 VAV BOX COMPONENT,Zone Air Terminal VAV Damper Position [] !TimeStep
2698,1,ZONE-VAV-105 VAV BOX COMPONENT,Zone Air Terminal VAV Damper Position [] !TimeStep
2699,1,ZONE-VAV-107 VAV BOX COMPONENT,Zone Air Terminal VAV Damper Position [] !TimeStep
2700,1,ZONE-VAV-108 VAV BOX COMPONENT,Zone Air Terminal VAV Damper Position [] !TimeStep
2701,1,ZONE-VAV-112 VAV BOX COMPONENT,Zone Air Terminal VAV Damper Position [] !TimeStep
2702,1,ZONE-VAV-116 VAV BOX COMPONENT,Zone Air Terminal VAV Damper Position [] !TimeStep
2703,1,ZONE-VAV-118 VAV BOX COMPONENT,Zone Air Terminal VAV Damper Position [] !TimeStep
2704,1,ZONE-VAV-119 VAV BOX COMPONENT,Zone Air Terminal VAV Damper Position [] !TimeStep
2705,1,ZONE-VAV-120 VAV BOX COMPONENT,Zone Air Terminal VAV Damper Position [] !TimeStep
2706,1,ZONE-VAV-123A VAV BOX COMPONENT,Zone Air Terminal VAV Damper Position [] !TimeStep
2707,1,ZONE-VAV-123B VAV BOX COMPONENT,Zone Air Terminal VAV Damper Position [] !TimeStep
2708,1,ZONE-VAV-127A VAV BOX COMPONENT,Zone Air Terminal VAV Damper Position [] !TimeStep
2709,1,ZONE-VAV-127B VAV BOX COMPONENT,Zone Air Terminal VAV Damper Position [] !TimeStep
2710,1,ZONE-VAV-129 VAV BOX COMPONENT,Zone Air Terminal VAV Damper Position [] !TimeStep
2711,1,ZONE-VAV-131 VAV BOX COMPONENT,Zone Air Terminal VAV Damper Position [] !TimeStep
2712,1,ZONE-VAV-136 VAV BOX COMPONENT,Zone Air Terminal VAV Damper Position [] !TimeStep
2713,1,ZONE-VAV-133 VAV BOX COMPONENT,Zone Air Terminal VAV Damper Position [] !TimeStep
2714,1,ZONE-VAV-142 VAV BOX COMPONENT,Zone Air Terminal VAV Damper Position [] !TimeStep
2715,1,ZONE-VAV-143 VAV BOX COMPONENT,Zone Air Terminal VAV Damper Position [] !TimeStep
2716,1,ZONE-VAV-150 VAV BOX COMPONENT,Zone Air Terminal VAV Damper Position [] !TimeStep
2751,1,AHU-001 FAN,Fan Electric Power [W] !TimeStep
2763,1,AHU-002 FAN,Fan Electric Power [W] !TimeStep
2765,1,AHU-003 FAN,Fan Electric Power [W] !TimeStep
2767,1,AHU-004 FAN,Fan Electric Power [W] !TimeStep
2980,1,DISTRICT COOLING,District Cooling Rate [W] !TimeStep
2995,1,ZONE-VAV-CORRIDOR VAV BOX OUTLET NODE,System Node Temperature [C] !TimeStep
2996,1,ZONE-VAV-CORRIDOR VAV BOX OUTLET NODE,System Node Mass Flow Rate [kg/s] !TimeStep
2997,1,ZONE-VAV-102 VAV BOX OUTLET NODE,System Node Temperature [C] !TimeStep
2998,1,ZONE-VAV-102 VAV BOX OUTLET NODE,System Node Mass Flow Rate [kg/s] !TimeStep
2999,1,ZONE-VAV-104 VAV BOX OUTLET NODE,System Node Temperature [C] !TimeStep
3000,1,ZONE-VAV-104 VAV BOX OUTLET NODE,System Node Mass Flow Rate [kg/s] !TimeStep
3001,1,ZONE-VAV-105 VAV BOX OUTLET NODE,System Node Temperature [C] !TimeStep
3002,1,ZONE-VAV-105 VAV BOX OUTLET NODE,System Node Mass Flow Rate [kg/s] !TimeStep
3003,1,ZONE-VAV-107 VAV BOX OUTLET NODE,System Node Temperature [C] !TimeStep
3004,1,ZONE-VAV-107 VAV BOX OUTLET NODE,System Node Mass Flow Rate [kg/s] !TimeStep
3005,1,ZONE-VAV-108 VAV BOX OUTLET NODE,System Node Temperature [C] !TimeStep
3006,1,ZONE-VAV-108 VAV BOX OUTLET NODE,System Node Mass Flow Rate [kg/s] !TimeStep
3007,1,ZONE-VAV-112 VAV BOX OUTLET NODE,System Node Temperature [C] !TimeStep
3008,1,ZONE-VAV-112 VAV BOX OUTLET NODE,System Node Mass Flow Rate [kg/s] !TimeStep
3009,1,ZONE-VAV-116 VAV BOX OUTLET NODE,System Node Temperature [C] !TimeStep
3010,1,ZONE-VAV-116 VAV BOX OUTLET NODE,System Node Mass Flow Rate [kg/s] !TimeStep
3011,1,ZONE-VAV-118 VAV BOX OUTLET NODE,System Node Temperature [C] !TimeStep
3012,1,ZONE-VAV-118 VAV BOX OUTLET NODE,System Node Mass Flow Rate [kg/s] !TimeStep
3013,1,ZONE-VAV-119 VAV BOX OUTLET NODE,System Node Temperature [C] !TimeStep
3014,1,ZONE-VAV-119 VAV BOX OUTLET NODE,System Node Mass Flow Rate [kg/s] !TimeStep
3015,1,ZONE-VAV-120 VAV BOX OUTLET NODE,System Node Temperature [C] !TimeStep
3016,1,ZONE-VAV-120 VAV BOX OUTLET NODE,System Node Mass Flow Rate [kg/s] !TimeStep
3017,1,ZONE-VAV-123A VAV BOX OUTLET NODE,System Node Temperature [C] !TimeStep
3018,1,ZONE-VAV-123A VAV BOX OUTLET NODE,System Node Mass Flow Rate [kg/s] !TimeStep
3019,1,ZONE-VAV-123B VAV BOX OUTLET NODE,System Node Temperature [C] !TimeStep
3020,1,ZONE-VAV-123B VAV BOX OUTLET NODE,System Node Mass Flow Rate [kg/s] !TimeStep
3021,1,ZONE-VAV-127A VAV BOX OUTLET NODE,System Node Temperature [C] !TimeStep
3022,1,ZONE-VAV-127A VAV BOX OUTLET NODE,System Node Mass Flow Rate [kg/s] !TimeStep
3023,1,ZONE-VAV-127B VAV BOX OUTLET NODE,System Node Temperature [C] !TimeStep
3024,1,ZONE-VAV-127B VAV BOX OUTLET NODE,System Node Mass Flow Rate [kg/s] !TimeStep
3025,1,ZONE-VAV-129 VAV BOX OUTLET NODE,System Node Temperature [C] !TimeStep
3026,1,ZONE-VAV-129 VAV BOX OUTLET NODE,System Node Mass Flow Rate [kg/s] !TimeStep
3027,1,ZONE-VAV-131 VAV BOX OUTLET NODE,System Node Temperature [C] !TimeStep
3028,1,ZONE-VAV-131 VAV BOX OUTLET NODE,System Node Mass Flow Rate [kg/s] !TimeStep
3029,1,ZONE-VAV-136 VAV BOX OUTLET NODE,System Node Temperature [C] !TimeStep
3030,1,ZONE-VAV-136 VAV BOX OUTLET NODE,System Node Mass Flow Rate [kg/s] !TimeStep
3031,1,ZONE-VAV-133 VAV BOX OUTLET NODE,System Node Temperature [C] !TimeStep
3032,1,ZONE-VAV-133 VAV BOX OUTLET NODE,System Node Mass Flow Rate [kg/s] !TimeStep
3033,1,ZONE-VAV-142 VAV BOX OUTLET NODE,System Node Temperature [C] !TimeStep
3034,1,ZONE-VAV-142 VAV BOX OUTLET NODE,System Node Mass Flow Rate [kg/s] !TimeStep
3035,1,ZONE-VAV-143 VAV BOX OUTLET NODE,System Node Temperature [C] !TimeStep
3036,1,ZONE-VAV-143 VAV BOX OUTLET NODE,System Node Mass Flow Rate [kg/s] !TimeStep
3037,1,ZONE-VAV-150 VAV BOX OUTLET NODE,System Node Temperature [C] !TimeStep
3038,1,ZONE-VAV-150 VAV BOX OUTLET NODE,System Node Mass Flow Rate [kg/s] !TimeStep
3039,1,ZONE-VAV-RESTROOM VAV BOX OUTLET NODE,System Node Temperature [C] !TimeStep
3040,1,ZONE-VAV-RESTROOM VAV BOX OUTLET NODE,System Node Mass Flow Rate [kg/s] !TimeStep
3041,1,ZONE-AHU-002 DIRECT AIR INLET NODE NAME,System Node Temperature [C] !TimeStep
3042,1,ZONE-AHU-002 DIRECT AIR INLET NODE NAME,System Node Mass Flow Rate [kg/s] !TimeStep
3043,1,ZONE-AHU-004 DIRECT AIR INLET NODE NAME,System Node Temperature [C] !TimeStep
3044,1,ZONE-AHU-004 DIRECT AIR INLET NODE NAME,System Node Mass Flow Rate [kg/s] !TimeStep
3045,1,AHU-001 OA COOLCNODE,System Node Temperature [C] !TimeStep
3046,1,AHU-003 OA COOLCNODE,System Node Temperature [C] !TimeStep
3047,1,AHU-004 OA COOLCNODE,System Node Temperature [C] !TimeStep
3048,1,AHU-001 SUPPLY EQUIPMENT INLET NODE,System Node Temperature [C] !TimeStep
3049,1,AHU-001 SUPPLY EQUIPMENT OUTLET NODE,System Node Temperature [C] !TimeStep
3050,1,AHU-001 SUPPLY EQUIPMENT OUTLET NODE,System Node Mass Flow Rate [kg/s] !TimeStep
3051,1,AHU-002 SUPPLY EQUIPMENT INLET NODE,System Node Temperature [C] !TimeStep
3052,1,AHU-002 OA COOLCNODE,System Node Temperature [C] !TimeStep
3053,1,AHU-002 SUPPLY EQUIPMENT OUTLET NODE,System Node Temperature [C] !TimeStep
3054,1,AHU-002 SUPPLY EQUIPMENT OUTLET NODE,System Node Mass Flow Rate [kg/s] !TimeStep
3055,1,AHU-003 SUPPLY EQUIPMENT INLET NODE,System Node Temperature [C] !TimeStep
3056,1,AHU-003 SUPPLY EQUIPMENT OUTLET NODE,System Node Temperature [C] !TimeStep
3057,1,AHU-003 SUPPLY EQUIPMENT OUTLET NODE,System Node Mass Flow Rate [kg/s] !TimeStep
3058,1,AHU-004 SUPPLY EQUIPMENT INLET NODE,System Node Temperature [C] !TimeStep
3059,1,AHU-004 SUPPLY EQUIPMENT OUTLET NODE,System Node Temperature [C] !TimeStep
3060,1,AHU-004 SUPPLY EQUIPMENT OUTLET NODE,System Node Mass Flow Rate [kg/s] !TimeStep
End of Data Dictionary
1,TYPICAL SUMMER WEEK,  46.27,-119.12,  -8.00, 136.00
2,1, 8,20, 1, 1, 0.00,15.00,Monday
6,18.
7,79.871840256
8,414.174139392
9,5.797149696
10,85.024862208
11,1592.283783168
12,1305.213389568
13,99.4136850432001
14,294.4753852416
15,188.2834944
16,500.3980701696
17,526.4604696576
18,3247.76640768
19,120.0604566528
20,80.4466003968
21,80.4466003968
22,2.011165009920003E-002
23,2453.96154368
24,185.731757568
25,87.2471029248
26,1370.8822130688
27,174.3777673728
28,1034.810962632
29,1077.928086075
30,7.0819987392
31,7.0819987392
32,19.6146188352
33,25.4870199936
34,508.6032666624
35,1708.589098944
36,6.0870071808
37,431.7613042176
38,98.7522153984
39,70.23469824
40,0.0
102,0.0
124,0.0
146,0.0
168,0.0
190,0.0
212,0.0
234,0.0
256,0.0
278,0.0
300,0.0
322,0.0
344,0.0
366,0.0
388,0.0
410,0.0
432,0.0
454,0.0
476,0.0
498,0.0
520,0.0
542,0.0
564,0.0
586,0.0
608,0.0
630,0.0
652,0.0
674,0.0
696,0.0
718,0.0
740,0.0
762,0.0
784,0.0
1189,0.0
1190,0.0
1191,0.0
1192,0.0
1193,0.0
1194,0.0
1195,0.0
1196,0.0
1197,0.0
1198,0.0
1199,0.0
1200,0.0
1201,0.0
1202,0.0
1203,0.0
1204,0.0
1205,0.0
1206,0.0
1207,0.0
1208,0.0
1209,0.0
1210,0.0
1211,0.0
1212,0.0
1213,0.0
1214,0.0
1215,0.0
1216,0.0
1217,0.0
1218,0.0
1219,0.0
1220,0.0
1221,0.0
1222,25.8613887118431
1223,25.931279118821
1224,25.4716218600666
1225,25.2693650478372
1226,24.7227075898225
1227,24.8732886340383
1228,24.8956225108751
1229,24.8290527041875
1230,25.1890045653838
1231,25.0947455447867
1232,23.9286830173736
1233,24.5714439223918
1234,24.4503170002687
1235,30.4836209065394
1236,31.6657486371589
1237,23.9570918811115
1238,28.569828126216
1239,27.1182525999617
1240,33.7595413334134
1241,27.3895940467875
1242,26.2894549383652
1243,30.0091413724891
1244,23.8308769484546
1245,24.5063662850875
1246,27.741215489702
1334,26.
1368,26.
1434,26.
1468,26.
1502,26.
1536,26.
1570,26.
1604,26.
1638,26.
1672,26.
1738,26.
1772,26.
1806,26.
1840,26.
1874,26.
1908,26.
1974,26.
2008,26.
2074,26.
2172,26.
2206,26.
2240,26.
2338,26.
2372,26.
2406,26.
2503,0.0
2504,0.2
2505,0.5
2506,0.0
2507,0.0
2508,0.0
2509,0.3
2510,0.48
2511,0.0
2512,0.0
2513,120.
2514,0.0
2515,4.
2516,1.
2517,6.44
2518,60.
2519,1.
2520,1.
2521,1.
2522,15.6
2523,21.11
2524,26.
2525,26.
2526,26.
2527,18.33
2528,5.
2529,0.7
2530,0.48
2531,13.
2532,26.
2533,26.
2534,26.
2535,0.0
2536,0.0
2537,38.
2538,1.
2539,1.
2540,1.
2541,0.0
1257,15.
1258,0.0
1259,20.
1260,8.
1333,0.0
1367,0.0
1433,0.0
1467,0.0
1501,0.0
1535,0.0
1569,0.0
1603,0.0
1637,0.0
1671,0.0
1737,0.0
1771,0.0
1805,0.0
1839,0.0
1873,0.0
1907,0.0
1973,0.0
2007,0.0
2073,0.0
2171,0.0
2205,0.0
2239,0.0
2337,0.0
2371,0.0
2405,0.0
2500,17888.3691058483
2501,0.0
2502,17888.3691058483
2694,0.0
2695,0.0
2696,0.0
2697,0.0
2698,0.0
2699,0.0
2700,0.0
2701,0.0
2702,0.0
2703,0.0
2704,0.0
2705,0.0
2706,0.0
2707,0.0
2708,0.0
2709,0.0
2710,0.0
2711,0.0
2712,0.0
2713,0.0
2714,0.0
2715,0.0
2716,0.0
2751,0.0
2763,0.0
2765,0.0
2767,0.0
2980,0.0
2995,23.809752455601
2996,0.0
2997,23.809752455601
2998,0.0
2999,27.3919509958116
3000,0.0
3001,27.3919509958116
3002,0.0
3003,27.3919509958116
3004,0.0
3005,27.3919509958116
3006,0.0
3007,27.3919509958116
3008,0.0
3009,27.3919509958116
3010,0.0
3011,23.809752455601
3012,0.0
3013,23.809752455601
3014,0.0
3015,23.809752455601
3016,0.0
3017,23.809752455601
3018,0.0
3019,23.809752455601
3020,0.0
3021,23.809752455601
3022,0.0
3023,23.809752455601
3024,0.0
3025,23.809752455601
3026,0.0
3027,23.809752455601
3028,0.0
3029,23.809752455601
3030,0.0
3031,23.809752455601
3032,0.0
3033,23.809752455601
3034,0.0
3035,23.809752455601
3036,0.0
3037,23.809752455601
3038,0.0
3039,23.809752455601
3040,0.0
3041,28.5766032794912
3042,0.0
3043,31.6754502432286
3044,0.0
3045,23.809752455601
3046,27.3919509958116
3047,31.6754502432286
3048,23.809752455601
3049,23.809752455601
3050,0.0
3051,28.5766032794912
3052,28.5766032794912
3053,28.5766032794912
3054,0.0
3055,27.3919509958116
3056,27.3919509958116
3057,0.0
3058,31.6754502432286
3059,31.6754502432286
3060,0.0
2,1, 8,20, 1, 1,15.00,30.00,Monday
6,18.
7,79.871840256
8,414.174139392
9,5.797149696
10,85.024862208
11,1592.283783168
12,1305.213389568
13,99.4136850432001
14,294.4753852416
15,188.2834944
16,500.3980701696
17,526.4604696576
18,3247.76640768
19,120.0604566528
20,80.4466003968
21,80.4466003968
22,2.011165009920003E-002
23,2453.96154368
24,185.731757568
25,87.2471029248
26,1370.8822130688
27,174.3777673728
28,1034.810962632
29,1077.928086075
30,7.0819987392
31,7.0819987392
32,19.6146188352
33,25.4870199936
34,508.6032666624
35,1708.589098944
36,6.0870071808
37,431.7613042176
38,98.7522153984
39,70.23469824
40,0.0
102,0.0
124,0.0
146,0.0
168,0.0
190,0.0
212,0.0
234,0.0
256,0.0
278,0.0
300,0.0
322,0.0
344,0.0
366,0.0
388,0.0
410,0.0
432,0.0
454,0.0
476,0.0
498,0.0
520,0.0
542,0.0
564,0.0
586,0.0
608,0.0
630,0.0
652,0.0
674,0.0
696,0.0
718,0.0
740,0.0
762,0.0
784,0.0
1189,0.0
1190,0.0
1191,0.0
1192,0.0
1193,0.0
1194,0.0
1195,0.0
1196,0.0
1197,0.0
1198,0.0
1199,0.0
1200,0.0
1201,0.0
1202,0.0
1203,0.0
1204,0.0
1205,0.0
1206,0.0
1207,0.0
1208,0.0
1209,0.0
1210,0.0
1211,0.0
1212,0.0
1213,0.0
1214,0.0
1215,0.0
1216,0.0
1217,0.0
1218,0.0
1219,0.0
1220,0.0
1221,0.0
1222,25.7031408759934
1223,25.8180751072154
1224,25.3290615091384
1225,25.222204073619
1226,24.6822640074093
1227,24.8325058068078
1228,24.882697462643
1229,24.7652899959942
1230,25.1587909160894
1231,25.0697005779182
1232,23.9082129388861
1233,24.564623008457
1234,24.4442738321538
1235,30.3426633381904
1236,31.5601021597192
1237,23.9045553480572
1238,28.4692818942699
1239,26.9971345502427
1240,33.693219471308
1241,27.2917105326051
1242,26.1971961139785
1243,29.8967738644495
1244,23.7992400283928
1245,24.4787178550191
1246,27.623297035905
1334,26.
1368,26.
1434,26.
1468,26.
1502,26.
1536,26.
1570,26.
1604,26.
1638,26.
1672,26.
1738,26.
1772,26.
1806,26.
1840,26.
1874,26.
1908,26.
1974,26.
2008,26.
2074,26.
2172,26.
2206,26.
2240,26.
2338,26.
2372,26.
2406,26.
2503,0.0
2504,0.2
2505,0.5
2506,0.0
2507,0.0
2508,0.0
2509,0.3
2510,0.48
2511,0.0
2512,0.0
2513,120.
2514,0.0
2515,4.
2516,1.
2517,6.44
2518,60.
2519,1.
2520,1.
2521,1.
2522,15.6
2523,21.11
2524,26.
2525,26.
2526,26.
2527,18.33
2528,5.
2529,0.7
2530,0.48
2531,13.
2532,26.
2533,26.
2534,26.
2535,0.0
2536,0.0
2537,39.
2538,1.
2539,1.
2540,1.
2541,0.0
1257,26.25
1258,0.0
1259,20.
1260,8.
1333,0.0
1367,0.0
1433,0.0
1467,0.0
1501,0.0
1535,0.0
1569,0.0
1603,0.0
1637,0.0
1671,0.0
1737,0.0
1771,0.0
1805,0.0
1839,0.0
1873,0.0
1907,0.0
1973,0.0
2007,0.0
2073,0.0
2171,0.0
2205,0.0
2239,0.0
2337,0.0
2371,0.0