Program Version,EnergyPlus, Version 8.4.0-09f5359d8a, YMD=2019.04.20 00:41
1,5,Environment Title[],Latitude[deg],Longitude[deg],Time Zone[],Elevation[m]
2,6,Day of Simulation[],Month[],Day of Month[],DST Indicator[1=yes 0=no],Hour[],StartMinute[],EndMinute[],DayType
3,3,Cumulative Day of Simulation[],Month[],Day of Month[],DST Indicator[1=yes 0=no],DayType  ! When Daily Report Variables Requested
4,2,Cumulative Days of Simulation[],Month[]  ! When Monthly Report Variables Requested
5,1,Cumulative Days of Simulation[] ! When Run Period Report Variables Requested
6,1,Environment,Site Outdoor Air Drybulb Temperature [C] !TimeStep
7,1,ZONE-VAV-143,Zone Total Internal Total Heating Rate [W] !TimeStep
8,1,ZONE-VAV-142,Zone Total Internal Total Heating Rate [W] !TimeStep
9,1,ZONE-HTR-001,Zone Total Internal Total Heating Rate [W] !TimeStep
10,1,ZONE-VAV-136,Zone Total Internal Total Heating Rate [W] !TimeStep
11,1,ZONE-VAV-127B,Zone Total Internal Total Heating Rate [W] !TimeStep
12,1,ZONE-VAV-127A,Zone Total Internal Total Heating Rate [W] !TimeStep
13,1,ZONE-VAV-131,Zone Total Internal Total Heating Rate [W] !TimeStep
14,1,ZONE-VAV-129,Zone Total Internal Total Heating Rate [W] !TimeStep
15,1,ZONE-VAV-150,Zone Total Internal Total Heating Rate [W] !TimeStep
16,1,ZONE-VAV-123A,Zone Total Internal Total Heating Rate [W] !TimeStep
17,1,ZONE-VAV-123B,Zone Total Internal Total Heating Rate [W] !TimeStep
18,1,ZONE-AHU-005,Zone Total Internal Total Heating Rate [W] !TimeStep
19,1,ZONE-VAV-118,Zone Total Internal Total Heating Rate [W] !TimeStep
20,1,ZONE-VAV-120,Zone Total Internal Total Heating Rate [W] !TimeStep
21,1,ZONE-VAV-119,Zone Total Internal Total Heating Rate [W] !TimeStep
22,1,ZONE-VAV-RESTROOM,Zone Total Internal Total Heating Rate [W] !TimeStep
23,1,ZONE-AHU-004,Zone Total Internal Total Heating Rate [W] !TimeStep
24,1,ZONE-VAV-102,Zone Total Internal Total Heating Rate [W] !TimeStep
25,1,ZONE-FCU-001,Zone Total Internal Total Heating Rate [W] !TimeStep
26,1,ZONE-AHU-002,Zone Total Internal Total Heating Rate [W] !TimeStep
27,1,ZONE-VAV-105,Zone Total Internal Total Heating Rate [W] !TimeStep
28,1,ZONE-FCU-003,Zone Total Internal Total Heating Rate [W] !TimeStep
29,1,ZONE-VAV-112,Zone Total Internal Total Heating Rate [W] !TimeStep
30,1,ZONE-HTR-002,Zone Total Internal Total Heating Rate [W] !TimeStep
31,1,ZONE-HTR-003,Zone Total Internal Total Heating Rate [W] !TimeStep
32,1,ZONE-VAV-104,Zone Total Internal Total Heating Rate [W] !TimeStep
33,1,ZONE-VAV-116,Zone Total Internal Total Heating Rate [W] !TimeStep
34,1,ZONE-VAV-108,Zone Total Internal Total Heating Rate [W] !TimeStep
35,1,ZONE-FCU-002,Zone Total Internal Total Heating Rate [W] !TimeStep
36,1,ZONE-HTR-004,Zone Total Internal Total Heating Rate [W] !TimeStep
37,1,ZONE-VAV-CORRIDOR,Zone Total Internal Total Heating Rate [W] !TimeStep
38,1,ZONE-VAV-133,Zone Total Internal Total Heating Rate [W] !TimeStep
39,1,ZONE-VAV-107,Zone Total Internal Total Heating Rate [W] !TimeStep
40,1,ZONE-VAV-CORRIDOR LIGHTS,Lights Electric Power [W] !TimeStep
102,1,ZONE-VAV-102 LIGHTS,Lights Electric Power [W] !TimeStep
124,1,ZONE-VAV-104 LIGHTS,Lights Electric Power [W] !TimeStep
146,1,ZONE-VAV-105 LIGHTS,Lights Electric Power [W] !TimeStep
168,1,ZONE-VAV-107 LIGHTS,Lights Electric Power [W] !TimeStep
190,1,ZONE-VAV-108 LIGHTS,Lights Electric Power [W] !TimeStep
212,1,ZONE-VAV-112 LIGHTS,Lights Electric Power [W] !TimeStep
234,1,ZONE-VAV-116 LIGHTS,Lights Electric Power [W] !TimeStep
256,1,ZONE-VAV-118 LIGHTS,Lights Electric Power [W] !TimeStep
278,1,ZONE-VAV-119 LIGHTS,Lights Electric Power [W] !TimeStep
300,1,ZONE-VAV-120 LIGHTS,Lights Electric Power [W] !TimeStep
322,1,ZONE-VAV-123A LIGHTS,Lights Electric Power [W] !TimeStep
344,1,ZONE-VAV-123B LIGHTS,Lights Electric Power [W] !TimeStep
366,1,ZONE-VAV-127A LIGHTS,Lights Electric Power [W] !TimeStep
388,1,ZONE-VAV-127B LIGHTS,Lights Electric Power [W] !TimeStep
410,1,ZONE-VAV-129 LIGHTS,Lights Electric Power [W] !TimeStep
432,1,ZONE-VAV-131 LIGHTS,Lights Electric Power [W] !TimeStep
454,1,ZONE-VAV-133 LIGHTS,Lights Electric Power [W] !TimeStep
476,1,ZONE-VAV-142 LIGHTS,Lights Electric Power [W] !TimeStep
498,1,ZONE-VAV-143 LIGHTS,Lights Electric Power [W] !TimeStep
520,1,ZONE-VAV-150 LIGHTS,Lights Electric Power [W] !TimeStep
542,1,ZONE-AHU-002 LIGHTS,Lights Electric Power [W] !TimeStep
564,1,ZONE-AHU-004 LIGHTS,Lights Electric Power [W] !TimeStep
586,1,ZONE-AHU-005 LIGHTS,Lights Electric Power [W] !TimeStep
608,1,ZONE-FCU-001 LIGHTS,Lights Electric Power [W] !TimeStep
630,1,ZONE-FCU-002 LIGHTS,Lights Electric Power [W] !TimeStep
652,1,ZONE-FCU-003 LIGHTS,Lights Electric Power [W] !TimeStep
674,1,ZONE-HTR-001 LIGHTS,Lights Electric Power [W] !TimeStep
696,1,ZONE-HTR-002 LIGHTS,Lights Electric Power [W] !TimeStep
718,1,ZONE-HTR-003 LIGHTS,Lights Electric Power [W] !TimeStep
740,1,ZONE-HTR-004 LIGHTS,Lights Electric Power [W] !TimeStep
762,1,ZONE-VAV-RESTROOM LIGHTS,Lights Electric Power [W] !TimeStep
784,1,ZONE-VAV-136 LIGHTS,Lights Electric Power [W] !TimeStep
1189,1,ZONE-VAV-143,Zone Windows Total Transmitted Solar Radiation Rate [W] !TimeStep
1190,1,ZONE-VAV-142,Zone Windows Total Transmitted Solar Radiation Rate [W] !TimeStep
1191,1,ZONE-HTR-001,Zone Windows Total Transmitted Solar Radiation Rate [W] !TimeStep
1192,1,ZONE-VAV-136,Zone Windows Total Transmitted Solar Radiation Rate [W] !TimeStep
1193,1,ZONE-VAV-127B,Zone Windows Total Transmitted Solar Radiation Rate [W] !TimeStep
1194,1,ZONE-VAV-127A,Zone Windows Total Transmitted Solar Radiation Rate [W] !TimeStep
1195,1,ZONE-VAV-131,Zone Windows Total Transmitted Solar Radiation Rate [W] !TimeStep
1196,1,ZONE-VAV-129,Zone Windows Total Transmitted Solar Radiation Rate [W] !TimeStep
1197,1,ZONE-VAV-150,Zone Windows Total Transmitted Solar Radiation Rate [W] !TimeStep
1198,1,ZONE-VAV-123A,Zone Windows Total Transmitted Solar Radiation Rate [W] !TimeStep
1199,1,ZONE-VAV-123B,Zone Windows Total Transmitted Solar Radiation Rate [W] !TimeStep
1200,1,ZONE-AHU-005,Zone Windows Total Transmitted Solar Radiation Rate [W] !TimeStep
1201,1,ZONE-VAV-118,Zone Windows Total Transmitted Solar Radiation Rate [W] !TimeStep
1202,1,ZONE-VAV-120,Zone Windows Total Transmitted Solar Radiation Rate [W] !TimeStep
1203,1,ZONE-VAV-119,Zone Windows Total Transmitted Solar Radiation Rate [W] !TimeStep
1204,1,ZONE-VAV-RESTROOM,Zone Windows Total Transmitted Solar Radiation Rate [W] !TimeStep
1205,1,ZONE-AHU-004,Zone Windows Total Transmitted Solar Radiation Rate [W] !TimeStep
1206,1,ZONE-VAV-102,Zone Windows Total Transmitted Solar Radiation Rate [W] !TimeStep
1207,1,ZONE-FCU-001,Zone Windows Total Transmitted Solar Radiation Rate [W] !TimeStep
1208,1,ZONE-AHU-002,Zone Windows Total Transmitted Solar Radiation Rate [W] !TimeStep
1209,1,ZONE-VAV-105,Zone Windows Total Transmitted Solar Radiation Rate [W] !TimeStep
1210,1,ZONE-FCU-003,Zone Windows Total Transmitted Solar Radiation Rate [W] !TimeStep
1211,1,ZONE-VAV-112,Zone Windows Total Transmitted Solar Radiation Rate [W] !TimeStep
1212,1,ZONE-HTR-002,Zone Windows Total Transmitted Solar Radiation Rate [W] !TimeStep
1213,1,ZONE-HTR-003,Zone Windows Total Transmitted Solar Radiation Rate [W] !TimeStep
1214,1,ZONE-VAV-104,Zone Windows Total Transmitted Solar Radiation Rate [W] !TimeStep
1215,1,ZONE-VAV-116,Zone Windows Total Transmitted Solar Radiation Rate [W] !TimeStep
1216,1,ZONE-VAV-108,Zone Windows Total Transmitted Solar Radiation Rate [W] !TimeStep
1217,1,ZONE-FCU-002,Zone Windows Total Transmitted Solar Radiation Rate [W] !TimeStep
1218,1,ZONE-HTR-004,Zone Windows Total Transmitted Solar Radiation Rate [W] !TimeStep
1219,1,ZONE-VAV-CORRIDOR,Zone Windows Total Transmitted Solar Radiation Rate [W] !TimeStep
1220,1,ZONE-VAV-133,Zone Windows Total Transmitted Solar Radiation Rate [W] !TimeStep
1221,1,ZONE-VAV-107,Zone Windows Total Transmitted Solar Radiation Rate [W] !TimeStep
1222,1,ZONE-VAV-143,Zone Mean Air Temperature [C] !TimeStep
1223,1,ZONE-VAV-142,Zone Mean Air Temperature [C] !TimeStep
1224,1,ZONE-VAV-136,Zone Mean Air Temperature [C] !TimeStep
1225,1,ZONE-VAV-127B,Zone Mean Air Temperature [C] !TimeStep
1226,1,ZONE-VAV-127A,Zone Mean Air Temperature [C] !TimeStep
1227,1,ZONE-VAV-131,Zone Mean Air Temperature [C] !TimeStep
1228,1,ZONE-VAV-129,Zone Mean Air Temperature [C] !TimeStep
1229,1,ZONE-VAV-150,Zone Mean Air Temperature [C] !TimeStep
1230,1,ZONE-VAV-123A,Zone Mean Air Temperature [C] !TimeStep
1231,1,ZONE-VAV-123B,Zone Mean Air Temperature [C] !TimeStep
1232,1,ZONE-VAV-118,Zone Mean Air Temperature [C] !TimeStep
1233,1,ZONE-VAV-120,Zone Mean Air Temperature [C] !TimeStep
1234,1,ZONE-VAV-119,Zone Mean Air Temperature [C] !TimeStep
1235,1,ZONE-VAV-RESTROOM,Zone Mean Air Temperature [C] !TimeStep
1236,1,ZONE-AHU-004,Zone Mean Air Temperature [C] !TimeStep
1237,1,ZONE-VAV-102,Zone Mean Air Temperature [C] !TimeStep
1238,1,ZONE-AHU-002,Zone Mean Air Temperature [C] !TimeStep
1239,1,ZONE-VAV-105,Zone Mean Air Temperature [C] !TimeStep
1240,1,ZONE-VAV-112,Zone Mean Air Temperature [C] !TimeStep
1241,1,ZONE-VAV-104,Zone Mean Air Temperature [C] !TimeStep
1242,1,ZONE-VAV-116,Zone Mean Air Temperature [C] !TimeStep
1243,1,ZONE-VAV-108,Zone Mean Air Temperature [C] !TimeStep
1244,1,ZONE-VAV-CORRIDOR,Zone Mean Air Temperature [C] !TimeStep
1245,1,ZONE-VAV-133,Zone Mean Air Temperature [C] !TimeStep
1246,1,ZONE-VAV-107,Zone Mean Air Temperature [C] !TimeStep
1257,1,EMS,currentMinuteV [] !TimeStep
1258,1,EMS,currentHourV [] !TimeStep
1259,1,EMS,currentDayOfMonthV [] !TimeStep
1260,1,EMS,currentMonthV [] !TimeStep
1333,1,ZONE-VAV-143,Zone Air System Sensible Cooling Rate [W] !TimeStep
1334,1,ZONE-VAV-143,Zone Thermostat Cooling Setpoint Temperature [C] !TimeStep
1367,1,ZONE-VAV-142,Zone Air System Sensible Cooling Rate [W] !TimeStep
1368,1,ZONE-VAV-142,Zone Thermostat Cooling Setpoint Temperature [C] !TimeStep
1433,1,ZONE-VAV-136,Zone Air System Sensible Cooling Rate [W] !TimeStep
1434,1,ZONE-VAV-136,Zone Thermostat Cooling Setpoint Temperature [C] !TimeStep
1467,1,ZONE-VAV-127B,Zone Air System Sensible Cooling Rate [W] !TimeStep
1468,1,ZONE-VAV-127B,Zone Thermostat Cooling Setpoint Temperature [C] !TimeStep
1501,1,ZONE-VAV-127A,Zone Air System Sensible Cooling Rate [W] !TimeStep
1502,1,ZONE-VAV-127A,Zone Thermostat Cooling Setpoint Temperature [C] !TimeStep
1535,1,ZONE-VAV-131,Zone Air System Sensible Cooling Rate [W] !TimeStep
1536,1,ZONE-VAV-131,Zone Thermostat Cooling Setpoint Temperature [C] !TimeStep
1569,1,ZONE-VAV-129,Zone Air System Sensible Cooling Rate [W] !TimeStep
1570,1,ZONE-VAV-129,Zone Thermostat Cooling Setpoint Temperature [C] !TimeStep
1603,1,ZONE-VAV-150,Zone Air System Sensible Cooling Rate [W] !TimeStep
1604,1,ZONE-VAV-150,Zone Thermostat Cooling Setpoint Temperature [C] !TimeStep
1637,1,ZONE-VAV-123A,Zone Air System Sensible Cooling Rate [W] !TimeStep
1638,1,ZONE-VAV-123A,Zone Thermostat Cooling Setpoint Temperature [C] !TimeStep
1671,1,ZONE-VAV-123B,Zone Air System Sensible Cooling Rate [W] !TimeStep
1672,1,ZONE-VAV-123B,Zone Thermostat Cooling Setpoint Temperature [C] !TimeStep
1737,1,ZONE-VAV-118,Zone Air System Sensible Cooling Rate [W] !TimeStep
1738,1,ZONE-VAV-118,Zone Thermostat Cooling Setpoint Temperature [C] !TimeStep
1771,1,ZONE-VAV-120,Zone Air System Sensible Cooling Rate [W] !TimeStep
1772,1,ZONE-VAV-120,Zone Thermostat Cooling Setpoint Temperature [C] !TimeStep
1805,1,ZONE-VAV-119,Zone Air System Sensible Cooling Rate [W] !TimeStep
1806,1,ZONE-VAV-119,Zone Thermostat Cooling Setpoint Temperature [C] !TimeStep
1839,1,ZONE-VAV-RESTROOM,Zone Air System Sensible Cooling Rate [W] !TimeStep
1840,1,ZONE-VAV-RESTROOM,Zone Thermostat Cooling Setpoint Temperature [C] !TimeStep
1873,1,ZONE-AHU-004,Zone Air System Sensible Cooling Rate [W] !TimeStep
1874,1,ZONE-AHU-004,Zone Thermostat Cooling Setpoint Temperature [C] !TimeStep
1907,1,ZONE-VAV-102,Zone Air System Sensible Cooling Rate [W] !TimeStep
1908,1,ZONE-VAV-102,Zone Thermostat Cooling Setpoint Temperature [C] !TimeStep
1973,1,ZONE-AHU-002,Zone Air System Sensible Cooling Rate [W] !TimeStep
1974,1,ZONE-AHU-002,Zone Thermostat Cooling Setpoint Temperature [C] !TimeStep
2007,1,ZONE-VAV-105,Zone Air System Sensible Cooling Rate [W] !TimeStep
2008,1,ZONE-VAV-105,Zone Thermostat Cooling Setpoint Temperature [C] !TimeStep
2073,1,ZONE-VAV-112,Zone Air System Sensible Cooling Rate [W] !TimeStep
2074,1,ZONE-VAV-112,Zone Thermostat Cooling Setpoint Temperature [C] !TimeStep
2171,1,ZONE-VAV-104,Zone Air System Sensible Cooling Rate [W] !TimeStep
2172,1,ZONE-VAV-104,Zone Thermostat Cooling Setpoint Temperature [C] !TimeStep
2205,1,ZONE-VAV-116,Zone Air System Sensible Cooling Rate [W] !TimeStep
2206,1,ZONE-VAV-116,Zone Thermostat Cooling Setpoint Temperature [C] !TimeStep
2239,1,ZONE-VAV-108,Zone Air System Sensible Cooling Rate [W] !TimeStep
2240,1,ZONE-VAV-108,Zone Thermostat Cooling Setpoint Temperature [C] !TimeStep
2337,1,ZONE-VAV-CORRIDOR,Zone Air System Sensible Cooling Rate [W] !TimeStep
2338,1,ZONE-VAV-CORRIDOR,Zone Thermostat Cooling Setpoint Temperature [C] !TimeStep
2371,1,ZONE-VAV-133,Zone Air System Sensible Cooling Rate [W] !TimeStep
2372,1,ZONE-VAV-133,Zone Thermostat Cooling Setpoint Temperature [C] !TimeStep
2405,1,ZONE-VAV-107,Zone Air System Sensible Cooling Rate [W] !TimeStep
2406,1,ZONE-VAV-107,Zone Thermostat Cooling Setpoint Temperature [C] !TimeStep
2500,1,Whole Building,Facility Total Building Electric Demand Power [W] !TimeStep
2501,1,Whole Building,Facility Total HVAC Electric Demand Power [W] !TimeStep
2502,1,Whole Building,Facility Total Electric Demand Power [W] !TimeStep
2503,1,WORK EFF SCH,Schedule Value [] !TimeStep
2504,1,AIR VELO SCH,Schedule Value [] !TimeStep
2505,1,CLOTHING SCH,Schedule Value [] !TimeStep
2506,1,REHEAT COIL AVAILABILITY,Schedule Value [] !TimeStep
2507,1,HVACOPERATIONSCHD,Schedule Value [] !TimeStep
2508,1,BLDG LIGHT SCH,Schedule Value [] !TimeStep
2509,1,OLD BLDG EQUIP SCH,Schedule Value [] !TimeStep
2510,1,BLDG EQUIP SCH,Schedule Value [] !TimeStep
2511,1,BLDG OCC SCH,Schedule Value [] !TimeStep
2512,1,BLDG SWH SCH,Schedule Value [] !TimeStep
2513,1,ACTIVITY SCH,Schedule Value [] !TimeStep
2514,1,MINOA MOTORIZEDDAMPER SCHED,Schedule Value [] !TimeStep
2515,1,DUAL ZONE CONTROL TYPE SCHED,Schedule Value [] !TimeStep
2516,1,INFIL SCH PNNL,Schedule Value [] !TimeStep
2517,1,CW-LOOP-TEMP-SCHEDULE,Schedule Value [] !TimeStep
2518,1,HW-LOOP-TEMP-SCHEDULE,Schedule Value [] !TimeStep
2519,1,FRONTENTRY FANSCHED,Schedule Value [] !TimeStep
2520,1,FRONTENTRY COILSCHED,Schedule Value [] !TimeStep
2521,1,PLANTONSCHED,Schedule Value [] !TimeStep
2522,1,HTGSETP SCH,Schedule Value [] !TimeStep
2523,1,CLGSETP SCH CONSTANTON,Schedule Value [] !TimeStep
2524,1,CLGSETP SCH,Schedule Value [] !TimeStep
2525,1,CLGTEMPSETPOINT,Schedule Value [] !TimeStep
2526,1,FCU-CLGSETP SCH,Schedule Value [] !TimeStep
2527,1,PLANT LOOP HIGH TEMP SCHEDULE,Schedule Value [] !TimeStep
2528,1,PLANT LOOP LOW TEMP SCHEDULE,Schedule Value [] !TimeStep
2529,1,OLD BLDG CONTROLROOM EQUIP SCH,Schedule Value [] !TimeStep
2530,1,BLDG CONTROLROOM EQUIP SCH,Schedule Value [] !TimeStep
2531,1,SEASONAL-RESET-SUPPLY-AIR-TEMP-SCH,Schedule Value [] !TimeStep
2532,1,CLGSETP SCH BASE EXTENDEDHVAC2,Schedule Value [] !TimeStep
2533,1,CLGSETP SCH BASE EXTENDEDHVAC3,Schedule Value [] !TimeStep
2534,1,CLGSETP SCH BASE EXTENDEDHVAC,Schedule Value [] !TimeStep
2535,1,DR RESPONSE,Schedule Value [] !TimeStep
2536,1,CPP EVENT,Schedule Value [] !TimeStep
2537,1,DUTYCYCLETIMESTEPCOUNT,Schedule Value [] !TimeStep
2538,1,PREVIOUSFLOW1,Schedule Value [] !TimeStep
2539,1,PREVIOUSFLOW2,Schedule Value [] !TimeStep
2540,1,ALWAYS ON,Schedule Value [] !TimeStep
2541,1,HVAC SCHEDULE REST OF THE BUILDING,Schedule Value [] !TimeStep
2694,1,ZONE-VAV-CORRIDOR VAV BOX COMPONENT,Zone Air Terminal VAV Damper Position [] !TimeStep
2695,1,ZONE-VAV-RESTROOM VAV BOX COMPONENT,Zone Air Terminal VAV Damper Position [] !TimeStep
2696,1,ZONE-VAV-102 VAV BOX COMPONENT,Zone Air Terminal VAV Damper Position [] !TimeStep
2697,1,ZONE-VAV-104 VAV BOX COMPONENT,Zone Air Terminal VAV Damper Position [] !TimeStep
2698,1,ZONE-VAV-105 VAV BOX COMPONENT,Zone Air Terminal VAV Damper Position [] !TimeStep
2699,1,ZONE-VAV-107 VAV BOX COMPONENT,Zone Air Terminal VAV Damper Position [] !TimeStep
2700,1,ZONE-VAV-108 VAV BOX COMPONENT,Zone Air Terminal VAV Damper Position [] !TimeStep
2701,1,ZONE-VAV-112 VAV BOX COMPONENT,Zone Air Terminal VAV Damper Position [] !TimeStep
2702,1,ZONE-VAV-116 VAV BOX COMPONENT,Zone Air Terminal VAV Damper Position [] !TimeStep
2703,1,ZONE-VAV-118 VAV BOX COMPONENT,Zone Air Terminal VAV Damper Position [] !TimeStep
2704,1,ZONE-VAV-119 VAV BOX COMPONENT,Zone Air Terminal VAV Damper Position [] !TimeStep
2705,1,ZONE-VAV-120 VAV BOX COMPONENT,Zone Air Terminal VAV Damper Position [] !TimeStep
2706,1,ZONE-VAV-123A VAV BOX COMPONENT,Zone Air Terminal VAV Damper Position [] !TimeStep
2707,1,ZONE-VAV-123B VAV BOX COMPONENT,Zone Air Terminal VAV Damper Position [] !TimeStep
2708,1,ZONE-VAV-127A VAV BOX COMPONENT,Zone Air Terminal VAV Damper Position [] !TimeStep
2709,1,ZONE-VAV-127B VAV BOX COMPONENT,Zone Air Terminal VAV Damper Position [] !TimeStep
2710,1,ZONE-VAV-129 VAV BOX COMPONENT,Zone Air Terminal VAV Damper Position [] !TimeStep
2711,1,ZONE-VAV-131 VAV BOX COMPONENT,Zone Air Terminal VAV Damper Position [] !TimeStep
2712,1,ZONE-VAV-136 VAV BOX COMPONENT,Zone Air Terminal VAV Damper Position [] !TimeStep
2713,1,ZONE-VAV-133 VAV BOX COMPONENT,Zone Air Terminal VAV Damper Position [] !TimeStep
2714,1,ZONE-VAV-142 VAV BOX COMPONENT,Zone Air Terminal VAV Damper Position [] !TimeStep
2715,1,ZONE-VAV-143 VAV BOX COMPONENT,Zone Air Terminal VAV Damper Position [] !TimeStep
2716,1,ZONE-VAV-150 VAV BOX COMPONENT,Zone Air Terminal VAV Damper Position [] !TimeStep
2751,1,AHU-001 FAN,Fan Electric Power [W] !TimeStep
2763,1,AHU-002 FAN,Fan Electric Power [W] !TimeStep
2765,1,AHU-003 FAN,Fan Electric Power [W] !TimeStep
2767,1,AHU-004 FAN,Fan Electric Power [W] !TimeStep
2980,1,DISTRICT COOLING,District Cooling Rate [W] !TimeStep
2995,1,ZONE-VAV-CORRIDOR VAV BOX OUTLET NODE,System Node Temperature [C] !TimeStep
2996,1,ZONE-VAV-CORRIDOR VAV BOX OUTLET NODE,System Node Mass Flow Rate [kg/s] !TimeStep
2997,1,ZONE-VAV-102 VAV BOX OUTLET NODE,System Node Temperature [C] !TimeStep
2998,1,ZONE-VAV-102 VAV BOX OUTLET NODE,System Node Mass Flow Rate [kg/s] !TimeStep
2999,1,ZONE-VAV-104 VAV BOX OUTLET NODE,System Node Temperature [C] !TimeStep
3000,1,ZONE-VAV-104 VAV BOX OUTLET NODE,System Node Mass Flow Rate [kg/s] !TimeStep
3001,1,ZONE-VAV-105 VAV BOX OUTLET NODE,System Node Temperature [C] !TimeStep
3002,1,ZONE-VAV-105 VAV BOX OUTLET NODE,System Node Mass Flow Rate [kg/s] !TimeStep
3003,1,ZONE-VAV-107 VAV BOX OUTLET NODE,System Node Temperature [C] !TimeStep
3004,1,ZONE-VAV-107 VAV BOX OUTLET NODE,System Node Mass Flow Rate [kg/s] !TimeStep
3005,1,ZONE-VAV-108 VAV BOX OUTLET NODE,System Node Temperature [C] !TimeStep
3006,1,ZONE-VAV-108 VAV BOX OUTLET NODE,System Node Mass Flow Rate [kg/s] !TimeStep
3007,1,ZONE-VAV-112 VAV BOX OUTLET NODE,System Node Temperature [C] !TimeStep
3008,1,ZONE-VAV-112 VAV BOX OUTLET NODE,System Node Mass Flow Rate [kg/s] !TimeStep
3009,1,ZONE-VAV-116 VAV BOX OUTLET NODE,System Node Temperature [C] !TimeStep
3010,1,ZONE-VAV-116 VAV BOX OUTLET NODE,System Node Mass Flow Rate [kg/s] !TimeStep
3011,1,ZONE-VAV-118 VAV BOX OUTLET NODE,System Node Temperature [C] !TimeStep
3012,1,ZONE-VAV-118 VAV BOX OUTLET NODE,System Node Mass Flow Rate [kg/s] !TimeStep
3013,1,ZONE-VAV-119 VAV BOX OUTLET NODE,System Node Temperature [C] !TimeStep
3014,1,ZONE-VAV-119 VAV BOX OUTLET NODE,System Node Mass Flow Rate [kg/s] !TimeStep
3015,1,ZONE-VAV-120 VAV BOX OUTLET NODE,System Node Temperature [C] !TimeStep
3016,1,ZONE-VAV-120 VAV BOX OUTLET NODE,System Node Mass Flow Rate [kg/s] !TimeStep
3017,1,ZONE-VAV-123A VAV BOX OUTLET NODE,System Node Temperature [C] !TimeStep
3018,1,ZONE-VAV-123A VAV BOX OUTLET NODE,System Node Mass Flow Rate [kg/s] !TimeStep
3019,1,ZONE-VAV-123B VAV BOX OUTLET NODE,System Node Temperature [C] !TimeStep
3020,1,ZONE-VAV-123B VAV BOX OUTLET NODE,System Node Mass Flow Rate [kg/s] !TimeStep
3021,1,ZONE-VAV-127A VAV BOX OUTLET NODE,System Node Temperature [C] !TimeStep
3022,1,ZONE-VAV-127A VAV BOX OUTLET NODE,System Node Mass Flow Rate [kg/s] !TimeStep
3023,1,ZONE-VAV-127B VAV BOX OUTLET NODE,System Node Temperature [C] !TimeStep
3024,1,ZONE-VAV-127B VAV BOX OUTLET NODE,System Node Mass Flow Rate [kg/s] !TimeStep
3025,1,ZONE-VAV-129 VAV BOX OUTLET NODE,System Node Temperature [C] !TimeStep
3026,1,ZONE-VAV-129 VAV BOX OUTLET NODE,System Node Mass Flow Rate [kg/s] !TimeStep
3027,1,ZONE-VAV-131 VAV BOX OUTLET NODE,System Node Temperature [C] !TimeStep
3028,1,ZONE-VAV-131 VAV BOX OUTLET NODE,System Node Mass Flow Rate [kg/s] !TimeStep
3029,1,ZONE-VAV-136 VAV BOX OUTLET NODE,System Node Temperature [C] !TimeStep
3030,1,ZONE-VAV-136 VAV BOX OUTLET NODE,System Node Mass Flow Rate [kg/s] !TimeStep
3031,1,ZONE-VAV-133 VAV BOX OUTLET NODE,System Node Temperature [C] !TimeStep
3032,1,ZONE-VAV-133 VAV BOX OUTLET NODE,System Node Mass Flow Rate [kg/s] !TimeStep
3033,1,ZONE-VAV-142 VAV BOX OUTLET NODE,System Node Temperature [C] !TimeStep
3034,1,ZONE-VAV-142 VAV BOX OUTLET NODE,System Node Mass Flow Rate [kg/s] !TimeStep
3035,1,ZONE-VAV-143 VAV BOX OUTLET NODE,System Node Temperature [C] !TimeStep
3036,1,ZONE-VAV-143 VAV BOX OUTLET NODE,System Node Mass Flow Rate [kg/s] !TimeStep
3037,1,ZONE-VAV-150 VAV BOX OUTLET NODE,System Node Temperature [C] !TimeStep
3038,1,ZONE-VAV-150 VAV BOX OUTLET NODE,System Node Mass Flow Rate [kg/s] !TimeStep
3039,1,ZONE-VAV-RESTROOM VAV BOX OUTLET NODE,System Node Temperature [C] !TimeStep
3040,1,ZONE-VAV-RESTROOM VAV BOX OUTLET NODE,System Node Mass Flow Rate [kg/s] !TimeStep
3041,1,ZONE-AHU-002 DIRECT AIR INLET NODE NAME,System Node Temperature [C] !TimeStep
3042,1,ZONE-AHU-002 DIRECT AIR INLET NODE NAME,System Node Mass Flow Rate [kg/s] !TimeStep
3043,1,ZONE-AHU-004 DIRECT AIR INLET NODE NAME,System Node Temperature [C] !TimeStep
3044,1,ZONE-AHU-004 DIRECT AIR INLET NODE NAME,System Node Mass Flow Rate [kg/s] !TimeStep
3045,1,AHU-001 OA COOLCNODE,System Node Temperature [C] !TimeStep
3046,1,AHU-003 OA COOLCNODE,System Node Temperature [C] !TimeStep
3047,1,AHU-004 OA COOLCNODE,System Node Temperature [C] !TimeStep
3048,1,AHU-001 SUPPLY EQUIPMENT INLET NODE,System Node Temperature [C] !TimeStep
3049,1,AHU-001 SUPPLY EQUIPMENT OUTLET NODE,System Node Temperature [C] !TimeStep
3050,1,AHU-001 SUPPLY EQUIPMENT OUTLET NODE,System Node Mass Flow Rate [kg/s] !TimeStep
3051,1,AHU-002 SUPPLY EQUIPMENT INLET NODE,System Node Temperature [C] !TimeStep
3052,1,AHU-002 OA COOLCNODE,System Node Temperature [C] !TimeStep
3053,1,AHU-002 SUPPLY EQUIPMENT OUTLET NODE,System Node Temperature [C] !TimeStep
3054,1,AHU-002 SUPPLY EQUIPMENT OUTLET NODE,System Node Mass Flow Rate [kg/s] !TimeStep
3055,1,AHU-003 SUPPLY EQUIPMENT INLET NODE,System Node Temperature [C] !TimeStep
3056,1,AHU-003 SUPPLY EQUIPMENT OUTLET NODE,System Node Temperature [C] !TimeStep
3057,1,AHU-003 SUPPLY EQUIPMENT OUTLET NODE,System Node Mass Flow Rate [kg/s] !TimeStep
3058,1,AHU-004 SUPPLY EQUIPMENT INLET NODE,System Node Temperature [C] !TimeStep
3059,1,AHU-004 SUPPLY EQUIPMENT OUTLET NODE,System Node Temperature [C] !TimeStep
3060,1,AHU-004 SUPPLY EQUIPMENT OUTLET NODE,System Node Mass Flow Rate [kg/s] !TimeStep
End of Data Dictionary
1,TYPICAL SUMMER WEEK,  46.27,-119.12,  -8.00, 136.00
2,1, 8,20, 1, 1, 0.00,15.00,Monday
6,18.
7,79.871840256
8,414.174139392
9,5.797149696
10,85.024862208
11,1592.283783168
12,1305.213389568
13,99.4136850432001
14,294.4753852416
15,188.2834944
16,500.3980701696
17,526.4604696576
18,3247.76640768
19,120.0604566528
20,80.4466003968
21,80.4466003968
22,2.011165009920002E-02
23,2453.96154368
24,185.731757568
25,87.2471029248
26,1370.8822130688
27,174.3777673728
28,1034.810962632
29,1077.928086075
30,7.0819987392
31,7.0819987392
32,19.6146188352
33,25.4870199936
34,508.6032666624
35,1708.589098944
36,6.0870071808
37,431.7613042176
38,98.7522153984
39,70.23469824
40,0.0
102,0.0
124,0.0
146,0.0
168,0.0
190,0.0
212,0.0
234,0.0
256,0.0
278,0.0
300,0.0
322,0.0
344,0.0
366,0.0
388,0.0
410,0.0
432,0.0
454,0.0
476,0.0
498,0.0
520,0.0
542,0.0
564,0.0
586,0.0
608,0.0
630,0.0
652,0.0
674,0.0
696,0.0
718,0.0
740,0.0
762,0.0
784,0.0
1189,0.0
1190,0.0
1191,0.0
1192,0.0
1193,0.0
1194,0.0
1195,0.0
1196,0.0
1197,0.0
1198,0.0
1199,0.0
1200,0.0
1201,0.0
1202,0.0
1203,0.0
1204,0.0
1205,0.0
1206,0.0
1207,0.0
1208,0.0
1209,0.0
1210,0.0
1211,0.0
1212,0.0
1213,0.0
1214,0.0
1215,0.0
1216,0.0
1217,0.0
1218,0.0
1219,0.0
1220,0.0
1221,0.0
1222,20.024969973416
1223,21.7783241377525
1224,20.0709682407134
1225,21.3448816809092
1226,21.6404824340595
1227,21.816125276691
1228,21.7877812247902
1229,21.0800763021311
1230,21.7787785092299
1231,21.7582731927933
1232,21.3243734963523
1233,21.7399598389117
1234,21.7205269776215
1235,25.1106368512337
1236,31.6212179193974
1237,20.6597424805868
1238,28.5365728291896
1239,27.1501530540089
1240,33.7436313620998
1241,27.3421783586768
1242,26.2518785914278
1243,29.9624206539627
1244,21.7471569000365
1245,21.7581888624215
1246,27.736930318665
1334,22.
1368,22.
1434,22.
1468,22.
1502,22.
1536,22.
1570,22.
1604,22.
1638,22.
1672,22.
1738,22.
1772,22.
1806,22.
1840,22.
1874,22.
1908,22.
1974,22.
2008,22.
2074,22.
2172,22.
2206,22.
2240,22.
2338,22.
2372,22.
2406,22.
2503,0.0
2504,0.2
2505,0.5
2506,0.0
2507,0.0
2508,0.0
2509,0.3
2510,0.48
2511,0.0
2512,0.0
2513,120.
2514,1.
2515,4.
2516,1.
2517,6.44
2518,60.
2519,1.
2520,1.
2521,1.
2522,15.6
2523,21.11
2524,26.
2525,22.
2526,26.
2527,18.33
2528,5.
2529,0.7
2530,0.48
2531,13.
2532,26.
2533,26.
2534,26.
2535,0.0
2536,0.0
2537,38.
2538,1.
2539,1.
2540,1.
2541,0.0
1257,11.25
1258,0.0
1259,20.
1260,8.
1333,354.224184660986
1367,780.144318027175
1433,339.935938024693
1467,3382.66363185919
1501,2008.64671517251
1535,158.430224851052
1569,418.340457113523
1603,451.837424380446
1637,737.727635225755
1671,761.488691260919
1737,590.972317144152
1771,128.029904757404
1805,125.702521020583
1839,430.195675365407
1873,0.0
1907,1369.89017388694
1973,0.0
2007,0.0
2073,0.0
2171,0.0
2205,0.0
2239,0.0
2337,1516.92304110985
2371,348.535974666459
2405,0.0
2500,17888.3691058483
2501,2100.3524331521
2502,19988.7215390004
2694,0.3
2695,1.
2696,0.3
2697,0.0
2698,0.0
2699,0.0
2700,0.0
2701,0.0
2702,0.0
2703,0.3
2704,0.3
2705,0.3
2706,0.3
2707,0.3
2708,0.3
2709,0.3
2710,0.3
2711,0.3
2712,0.3
2713,0.3
2714,0.1
2715,0.3
2716,0.3
2751,219.515399703741
2763,0.0
2765,0.0
2767,0.0
2980,10227.3016545877
2995,13.0000295689277
2996,0.16997292581604
2997,13.0000295689277
2998,0.175308197751163
2999,27.3579516917051
3000,0.0
3001,27.3579516917051
3002,0.0
3003,27.3579516917051
3004,0.0
3005,27.3579516917051
3006,0.0
3007,27.3579516917051
3008,0.0
3009,27.3579516917051
3010,0.0
3011,13.0000295689277
3012,6.956553711473965E-02
3013,13.0000295689277
3014,1.412982600400770E-02
3015,13.0000295689277
3016,1.435960691234748E-02
3017,13.0000295689277
3018,8.237621404321520E-02
3019,13.0000295689277
3020,8.522723666091116E-02
3021,13.0000295689277
3022,0.227864045684843
3023,13.0000295689277
3024,0.397367705774594
3025,13.0000295689277
3026,4.666476745019824E-02
3027,13.0000295689277
3028,1.761674182951825E-02
3029,13.0000295689277
3030,4.714068924757369E-02
3031,13.0000295689277
3032,3.900431542890326E-02
3033,13.0000295689277
3034,8.712768320245412E-02
3035,13.0000295689277
3036,4.944517123063998E-02
3037,13.0000295689277
3038,5.482524546923485E-02
3039,13.0000295689277
3040,3.483061269152372E-02
3041,28.5559547264313
3042,0.0
3043,31.6387174366055
3044,0.0
3045,18.7071520733424
3046,27.3579516917051
3047,31.6387174366055
3048,21.4745183764647
3049,13.0000295689277
3050,1.61282652231191
3051,28.5559547264313
3052,28.5559547264313
3053,28.5559547264313
3054,0.0
3055,27.3579516917051
3056,27.3579516917051
3057,0.0
3058,31.6387174366055
3059,31.6387174366055
3060,0.0
2,1, 8,20, 1, 1,15.00,30.00,Monday
6,18.
7,79.871840256
8,414.174139392
9,5.797149696
10,85.024862208
11,1592.283783168
12,1305.213389568
13,99.4136850432001
14,294.4753852416
15,188.2834944
16,500.3980701696
17,526.4604696576
18,3247.76640768
19,120.0604566528
20,80.4466003968
21,80.4466003968
22,2.011165009920002E-02
23,2453.96154368
24,185.731757568
25,87.2471029248
26,1370.8822130688
27,174.3777673728
28,1034.810962632
29,1077.928086075
30,7.0819987392
31,7.0819987392
32,19.6146188352
33,25.4870199936
34,508.6032666624
35,1708.589098944
36,6.0870071808
37,431.7613042176
38,98.7522153984
39,70.23469824
40,0.0
102,0.0
124,0.0
146,0.0
168,0.0
190,0.0
212,0.0
234,0.0
256,0.0
278,0.0
300,0.0
322,0.0
344,0.0
366,0.0
388,0.0
410,0.0
432,0.0
454,0.0
476,0.0
498,0.0
520,0.0
542,0.0
564,0.0
586,0.0
608,0.0
630,0.0
652,0.0
674,0.0
696,0.0
718,0.0
740,0.0
762,0.0
784,0.0
1189,0.0
1190,0.0
1191,0.0
1192,0.0
1193,0.0
1194,0.0
1195,0.0
1196,0.0
1197,0.0
1198,0.0
1199,0.0
1200,0.0
1201,0.0
1202,0.0
1203,0.0
1204,0.0
1205,0.0
1206,0.0
1207,0.0
1208,0.0
1209,0.0
1210,0.0
1211,0.0
1212,0.0
1213,0.0
1214,0.0
1215,0.0
1216,0.0
1217,0.0
1218,0.0
1219,0.0
1220,0.0
1221,0.0
1222,19.9271559398974
1223,21.7945683896065
1224,19.9738146565284
1225,21.1571941033447
1226,21.5444590250981
1227,21.8273291962562
1228,21.7994895224964
1229,20.9682839718233
1230,21.8195732262358
1231,21.7832129212822
1232,21.2326552766219
1233,21.7164938440011
1234,21.6887163325126
1235,24.9509030065186
1236,31.5436012538854
1237,20.5323832994949
1238,28.4552052175422
1239,26.9877029992577
1240,33.6893317004923
1241,27.2664076614197
1242,26.1742030378479
1243,29.8736678111221
1244,21.6907461052376
1245,21.697544403905
1246,27.6113942077366
1334,22.
1368,22.
1434,22.
1468,22.
1502,22.
1536,22.
1570,22.
1604,22.
1638,22.
1672,22.
1738,22.
1772,22.
1806,22.
1840,22.
1874,22.
1908,22.
1974,22.
2008,22.
2074,22.
2172,22.
2206,22.
2240,22.
2338,22.
2372,22.
2406,22.
2503,0.0
2504,0.2