Program Version,EnergyPlus, Version 8.4.0-09f5359d8a, YMD=2019.04.20 19:57
1,5,Environment Title[],Latitude[deg],Longitude[deg],Time Zone[],Elevation[m]
2,6,Day of Simulation[],Month[],Day of Month[],DST Indicator[1=yes 0=no],Hour[],StartMinute[],EndMinute[],DayType
3,3,Cumulative Day of Simulation[],Month[],Day of Month[],DST Indicator[1=yes 0=no],DayType  ! When Daily Report Variables Requested
4,2,Cumulative Days of Simulation[],Month[]  ! When Monthly Report Variables Requested
5,1,Cumulative Days of Simulation[] ! When Run Period Report Variables Requested
6,1,Environment,Site Outdoor Air Drybulb Temperature [C] !TimeStep
7,1,ZONE-VAV-143,Zone Total Internal Total Heating Rate [W] !TimeStep
8,1,ZONE-VAV-142,Zone Total Internal Total Heating Rate [W] !TimeStep
9,1,ZONE-HTR-001,Zone Total Internal Total Heating Rate [W] !TimeStep
10,1,ZONE-VAV-136,Zone Total Internal Total Heating Rate [W] !TimeStep
11,1,ZONE-VAV-127B,Zone Total Internal Total Heating Rate [W] !TimeStep
12,1,ZONE-VAV-127A,Zone Total Internal Total Heating Rate [W] !TimeStep
13,1,ZONE-VAV-131,Zone Total Internal Total Heating Rate [W] !TimeStep
14,1,ZONE-VAV-129,Zone Total Internal Total Heating Rate [W] !TimeStep
15,1,ZONE-VAV-150,Zone Total Internal Total Heating Rate [W] !TimeStep
16,1,ZONE-VAV-123A,Zone Total Internal Total Heating Rate [W] !TimeStep
17,1,ZONE-VAV-123B,Zone Total Internal Total Heating Rate [W] !TimeStep
18,1,ZONE-AHU-005,Zone Total Internal Total Heating Rate [W] !TimeStep
19,1,ZONE-VAV-118,Zone Total Internal Total Heating Rate [W] !TimeStep
20,1,ZONE-VAV-120,Zone Total Internal Total Heating Rate [W] !TimeStep
21,1,ZONE-VAV-119,Zone Total Internal Total Heating Rate [W] !TimeStep
22,1,ZONE-VAV-RESTROOM,Zone Total Internal Total Heating Rate [W] !TimeStep
23,1,ZONE-AHU-004,Zone Total Internal Total Heating Rate [W] !TimeStep
24,1,ZONE-VAV-102,Zone Total Internal Total Heating Rate [W] !TimeStep
25,1,ZONE-FCU-001,Zone Total Internal Total Heating Rate [W] !TimeStep
26,1,ZONE-AHU-002,Zone Total Internal Total Heating Rate [W] !TimeStep
27,1,ZONE-VAV-105,Zone Total Internal Total Heating Rate [W] !TimeStep
28,1,ZONE-FCU-003,Zone Total Internal Total Heating Rate [W] !TimeStep
29,1,ZONE-VAV-112,Zone Total Internal Total Heating Rate [W] !TimeStep
30,1,ZONE-HTR-002,Zone Total Internal Total Heating Rate [W] !TimeStep
31,1,ZONE-HTR-003,Zone Total Internal Total Heating Rate [W] !TimeStep
32,1,ZONE-VAV-104,Zone Total Internal Total Heating Rate [W] !TimeStep
33,1,ZONE-VAV-116,Zone Total Internal Total Heating Rate [W] !TimeStep
34,1,ZONE-VAV-108,Zone Total Internal Total Heating Rate [W] !TimeStep
35,1,ZONE-FCU-002,Zone Total Internal Total Heating Rate [W] !TimeStep
36,1,ZONE-HTR-004,Zone Total Internal Total Heating Rate [W] !TimeStep
37,1,ZONE-VAV-CORRIDOR,Zone Total Internal Total Heating Rate [W] !TimeStep
38,1,ZONE-VAV-133,Zone Total Internal Total Heating Rate [W] !TimeStep
39,1,ZONE-VAV-107,Zone Total Internal Total Heating Rate [W] !TimeStep
40,1,ZONE-VAV-CORRIDOR LIGHTS,Lights Electric Power [W] !TimeStep
102,1,ZONE-VAV-102 LIGHTS,Lights Electric Power [W] !TimeStep
124,1,ZONE-VAV-104 LIGHTS,Lights Electric Power [W] !TimeStep
146,1,ZONE-VAV-105 LIGHTS,Lights Electric Power [W] !TimeStep
168,1,ZONE-VAV-107 LIGHTS,Lights Electric Power [W] !TimeStep
190,1,ZONE-VAV-108 LIGHTS,Lights Electric Power [W] !TimeStep
212,1,ZONE-VAV-112 LIGHTS,Lights Electric Power [W] !TimeStep
234,1,ZONE-VAV-116 LIGHTS,Lights Electric Power [W] !TimeStep
256,1,ZONE-VAV-118 LIGHTS,Lights Electric Power [W] !TimeStep
278,1,ZONE-VAV-119 LIGHTS,Lights Electric Power [W] !TimeStep
300,1,ZONE-VAV-120 LIGHTS,Lights Electric Power [W] !TimeStep
322,1,ZONE-VAV-123A LIGHTS,Lights Electric Power [W] !TimeStep
344,1,ZONE-VAV-123B LIGHTS,Lights Electric Power [W] !TimeStep
366,1,ZONE-VAV-127A LIGHTS,Lights Electric Power [W] !TimeStep
388,1,ZONE-VAV-127B LIGHTS,Lights Electric Power [W] !TimeStep
410,1,ZONE-VAV-129 LIGHTS,Lights Electric Power [W] !TimeStep
432,1,ZONE-VAV-131 LIGHTS,Lights Electric Power [W] !TimeStep
454,1,ZONE-VAV-133 LIGHTS,Lights Electric Power [W] !TimeStep
476,1,ZONE-VAV-142 LIGHTS,Lights Electric Power [W] !TimeStep
498,1,ZONE-VAV-143 LIGHTS,Lights Electric Power [W] !TimeStep
520,1,ZONE-VAV-150 LIGHTS,Lights Electric Power [W] !TimeStep
542,1,ZONE-AHU-002 LIGHTS,Lights Electric Power [W] !TimeStep
564,1,ZONE-AHU-004 LIGHTS,Lights Electric Power [W] !TimeStep
586,1,ZONE-AHU-005 LIGHTS,Lights Electric Power [W] !TimeStep
608,1,ZONE-FCU-001 LIGHTS,Lights Electric Power [W] !TimeStep
630,1,ZONE-FCU-002 LIGHTS,Lights Electric Power [W] !TimeStep
652,1,ZONE-FCU-003 LIGHTS,Lights Electric Power [W] !TimeStep
674,1,ZONE-HTR-001 LIGHTS,Lights Electric Power [W] !TimeStep
696,1,ZONE-HTR-002 LIGHTS,Lights Electric Power [W] !TimeStep
718,1,ZONE-HTR-003 LIGHTS,Lights Electric Power [W] !TimeStep
740,1,ZONE-HTR-004 LIGHTS,Lights Electric Power [W] !TimeStep
762,1,ZONE-VAV-RESTROOM LIGHTS,Lights Electric Power [W] !TimeStep
784,1,ZONE-VAV-136 LIGHTS,Lights Electric Power [W] !TimeStep
1189,1,ZONE-VAV-143,Zone Windows Total Transmitted Solar Radiation Rate [W] !TimeStep
1190,1,ZONE-VAV-142,Zone Windows Total Transmitted Solar Radiation Rate [W] !TimeStep
1191,1,ZONE-HTR-001,Zone Windows Total Transmitted Solar Radiation Rate [W] !TimeStep
1192,1,ZONE-VAV-136,Zone Windows Total Transmitted Solar Radiation Rate [W] !TimeStep
1193,1,ZONE-VAV-127B,Zone Windows Total Transmitted Solar Radiation Rate [W] !TimeStep
1194,1,ZONE-VAV-127A,Zone Windows Total Transmitted Solar Radiation Rate [W] !TimeStep
1195,1,ZONE-VAV-131,Zone Windows Total Transmitted Solar Radiation Rate [W] !TimeStep
1196,1,ZONE-VAV-129,Zone Windows Total Transmitted Solar Radiation Rate [W] !TimeStep
1197,1,ZONE-VAV-150,Zone Windows Total Transmitted Solar Radiation Rate [W] !TimeStep
1198,1,ZONE-VAV-123A,Zone Windows Total Transmitted Solar Radiation Rate [W] !TimeStep
1199,1,ZONE-VAV-123B,Zone Windows Total Transmitted Solar Radiation Rate [W] !TimeStep
1200,1,ZONE-AHU-005,Zone Windows Total Transmitted Solar Radiation Rate [W] !TimeStep
1201,1,ZONE-VAV-118,Zone Windows Total Transmitted Solar Radiation Rate [W] !TimeStep
1202,1,ZONE-VAV-120,Zone Windows Total Transmitted Solar Radiation Rate [W] !TimeStep
1203,1,ZONE-VAV-119,Zone Windows Total Transmitted Solar Radiation Rate [W] !TimeStep
1204,1,ZONE-VAV-RESTROOM,Zone Windows Total Transmitted Solar Radiation Rate [W] !TimeStep
1205,1,ZONE-AHU-004,Zone Windows Total Transmitted Solar Radiation Rate [W] !TimeStep
1206,1,ZONE-VAV-102,Zone Windows Total Transmitted Solar Radiation Rate [W] !TimeStep
1207,1,ZONE-FCU-001,Zone Windows Total Transmitted Solar Radiation Rate [W] !TimeStep
1208,1,ZONE-AHU-002,Zone Windows Total Transmitted Solar Radiation Rate [W] !TimeStep
1209,1,ZONE-VAV-105,Zone Windows Total Transmitted Solar Radiation Rate [W] !TimeStep
1210,1,ZONE-FCU-003,Zone Windows Total Transmitted Solar Radiation Rate [W] !TimeStep
1211,1,ZONE-VAV-112,Zone Windows Total Transmitted Solar Radiation Rate [W] !TimeStep
1212,1,ZONE-HTR-002,Zone Windows Total Transmitted Solar Radiation Rate [W] !TimeStep
1213,1,ZONE-HTR-003,Zone Windows Total Transmitted Solar Radiation Rate [W] !TimeStep
1214,1,ZONE-VAV-104,Zone Windows Total Transmitted Solar Radiation Rate [W] !TimeStep
1215,1,ZONE-VAV-116,Zone Windows Total Transmitted Solar Radiation Rate [W] !TimeStep
1216,1,ZONE-VAV-108,Zone Windows Total Transmitted Solar Radiation Rate [W] !TimeStep
1217,1,ZONE-FCU-002,Zone Windows Total Transmitted Solar Radiation Rate [W] !TimeStep
1218,1,ZONE-HTR-004,Zone Windows Total Transmitted Solar Radiation Rate [W] !TimeStep
1219,1,ZONE-VAV-CORRIDOR,Zone Windows Total Transmitted Solar Radiation Rate [W] !TimeStep
1220,1,ZONE-VAV-133,Zone Windows Total Transmitted Solar Radiation Rate [W] !TimeStep
1221,1,ZONE-VAV-107,Zone Windows Total Transmitted Solar Radiation Rate [W] !TimeStep
1222,1,ZONE-VAV-143,Zone Mean Air Temperature [C] !TimeStep
1223,1,ZONE-VAV-142,Zone Mean Air Temperature [C] !TimeStep
1224,1,ZONE-VAV-136,Zone Mean Air Temperature [C] !TimeStep
1225,1,ZONE-VAV-127B,Zone Mean Air Temperature [C] !TimeStep
1226,1,ZONE-VAV-127A,Zone Mean Air Temperature [C] !TimeStep
1227,1,ZONE-VAV-131,Zone Mean Air Temperature [C] !TimeStep
1228,1,ZONE-VAV-129,Zone Mean Air Temperature [C] !TimeStep
1229,1,ZONE-VAV-150,Zone Mean Air Temperature [C] !TimeStep
1230,1,ZONE-VAV-123A,Zone Mean Air Temperature [C] !TimeStep
1231,1,ZONE-VAV-123B,Zone Mean Air Temperature [C] !TimeStep
1232,1,ZONE-VAV-118,Zone Mean Air Temperature [C] !TimeStep
1233,1,ZONE-VAV-120,Zone Mean Air Temperature [C] !TimeStep
1234,1,ZONE-VAV-119,Zone Mean Air Temperature [C] !TimeStep
1235,1,ZONE-VAV-RESTROOM,Zone Mean Air Temperature [C] !TimeStep
1236,1,ZONE-AHU-004,Zone Mean Air Temperature [C] !TimeStep
1237,1,ZONE-VAV-102,Zone Mean Air Temperature [C] !TimeStep
1238,1,ZONE-AHU-002,Zone Mean Air Temperature [C] !TimeStep
1239,1,ZONE-VAV-105,Zone Mean Air Temperature [C] !TimeStep
1240,1,ZONE-VAV-112,Zone Mean Air Temperature [C] !TimeStep
1241,1,ZONE-VAV-104,Zone Mean Air Temperature [C] !TimeStep
1242,1,ZONE-VAV-116,Zone Mean Air Temperature [C] !TimeStep
1243,1,ZONE-VAV-108,Zone Mean Air Temperature [C] !TimeStep
1244,1,ZONE-VAV-CORRIDOR,Zone Mean Air Temperature [C] !TimeStep
1245,1,ZONE-VAV-133,Zone Mean Air Temperature [C] !TimeStep
1246,1,ZONE-VAV-107,Zone Mean Air Temperature [C] !TimeStep
1257,1,EMS,currentMinuteV [] !TimeStep
1258,1,EMS,currentHourV [] !TimeStep
1259,1,EMS,currentDayOfMonthV [] !TimeStep
1260,1,EMS,currentMonthV [] !TimeStep
1333,1,ZONE-VAV-143,Zone Air System Sensible Cooling Rate [W] !TimeStep
1334,1,ZONE-VAV-143,Zone Thermostat Cooling Setpoint Temperature [C] !TimeStep
1367,1,ZONE-VAV-142,Zone Air System Sensible Cooling Rate [W] !TimeStep
1368,1,ZONE-VAV-142,Zone Thermostat Cooling Setpoint Temperature [C] !TimeStep
1433,1,ZONE-VAV-136,Zone Air System Sensible Cooling Rate [W] !TimeStep
1434,1,ZONE-VAV-136,Zone Thermostat Cooling Setpoint Temperature [C] !TimeStep
1467,1,ZONE-VAV-127B,Zone Air System Sensible Cooling Rate [W] !TimeStep
1468,1,ZONE-VAV-127B,Zone Thermostat Cooling Setpoint Temperature [C] !TimeStep
1501,1,ZONE-VAV-127A,Zone Air System Sensible Cooling Rate [W] !TimeStep
1502,1,ZONE-VAV-127A,Zone Thermostat Cooling Setpoint Temperature [C] !TimeStep
1535,1,ZONE-VAV-131,Zone Air System Sensible Cooling Rate [W] !TimeStep
1536,1,ZONE-VAV-131,Zone Thermostat Cooling Setpoint Temperature [C] !TimeStep
1569,1,ZONE-VAV-129,Zone Air System Sensible Cooling Rate [W] !TimeStep
1570,1,ZONE-VAV-129,Zone Thermostat Cooling Setpoint Temperature [C] !TimeStep
1603,1,ZONE-VAV-150,Zone Air System Sensible Cooling Rate [W] !TimeStep
1604,1,ZONE-VAV-150,Zone Thermostat Cooling Setpoint Temperature [C] !TimeStep
1637,1,ZONE-VAV-123A,Zone Air System Sensible Cooling Rate [W] !TimeStep
1638,1,ZONE-VAV-123A,Zone Thermostat Cooling Setpoint Temperature [C] !TimeStep
1671,1,ZONE-VAV-123B,Zone Air System Sensible Cooling Rate [W] !TimeStep
1672,1,ZONE-VAV-123B,Zone Thermostat Cooling Setpoint Temperature [C] !TimeStep
1737,1,ZONE-VAV-118,Zone Air System Sensible Cooling Rate [W] !TimeStep
1738,1,ZONE-VAV-118,Zone Thermostat Cooling Setpoint Temperature [C] !TimeStep
1771,1,ZONE-VAV-120,Zone Air System Sensible Cooling Rate [W] !TimeStep
1772,1,ZONE-VAV-120,Zone Thermostat Cooling Setpoint Temperature [C] !TimeStep
1805,1,ZONE-VAV-119,Zone Air System Sensible Cooling Rate [W] !TimeStep
1806,1,ZONE-VAV-119,Zone Thermostat Cooling Setpoint Temperature [C] !TimeStep
1839,1,ZONE-VAV-RESTROOM,Zone Air System Sensible Cooling Rate [W] !TimeStep
1840,1,ZONE-VAV-RESTROOM,Zone Thermostat Cooling Setpoint Temperature [C] !TimeStep
1873,1,ZONE-AHU-004,Zone Air System Sensible Cooling Rate [W] !TimeStep
1874,1,ZONE-AHU-004,Zone Thermostat Cooling Setpoint Temperature [C] !TimeStep
1907,1,ZONE-VAV-102,Zone Air System Sensible Cooling Rate [W] !TimeStep
1908,1,ZONE-VAV-102,Zone Thermostat Cooling Setpoint Temperature [C] !TimeStep
1973,1,ZONE-AHU-002,Zone Air System Sensible Cooling Rate [W] !TimeStep
1974,1,ZONE-AHU-002,Zone Thermostat Cooling Setpoint Temperature [C] !TimeStep
2007,1,ZONE-VAV-105,Zone Air System Sensible Cooling Rate [W] !TimeStep
2008,1,ZONE-VAV-105,Zone Thermostat Cooling Setpoint Temperature [C] !TimeStep
2073,1,ZONE-VAV-112,Zone Air System Sensible Cooling Rate [W] !TimeStep
2074,1,ZONE-VAV-112,Zone Thermostat Cooling Setpoint Temperature [C] !TimeStep
2171,1,ZONE-VAV-104,Zone Air System Sensible Cooling Rate [W] !TimeStep
2172,1,ZONE-VAV-104,Zone Thermostat Cooling Setpoint Temperature [C] !TimeStep
2205,1,ZONE-VAV-116,Zone Air System Sensible Cooling Rate [W] !TimeStep
2206,1,ZONE-VAV-116,Zone Thermostat Cooling Setpoint Temperature [C] !TimeStep
2239,1,ZONE-VAV-108,Zone Air System Sensible Cooling Rate [W] !TimeStep
2240,1,ZONE-VAV-108,Zone Thermostat Cooling Setpoint Temperature [C] !TimeStep
2337,1,ZONE-VAV-CORRIDOR,Zone Air System Sensible Cooling Rate [W] !TimeStep
2338,1,ZONE-VAV-CORRIDOR,Zone Thermostat Cooling Setpoint Temperature [C] !TimeStep
2371,1,ZONE-VAV-133,Zone Air System Sensible Cooling Rate [W] !TimeStep
2372,1,ZONE-VAV-133,Zone Thermostat Cooling Setpoint Temperature [C] !TimeStep
2405,1,ZONE-VAV-107,Zone Air System Sensible Cooling Rate [W] !TimeStep
2406,1,ZONE-VAV-107,Zone Thermostat Cooling Setpoint Temperature [C] !TimeStep
2500,1,Whole Building,Facility Total Building Electric Demand Power [W] !TimeStep
2501,1,Whole Building,Facility Total HVAC Electric Demand Power [W] !TimeStep
2502,1,Whole Building,Facility Total Electric Demand Power [W] !TimeStep
2503,1,WORK EFF SCH,Schedule Value [] !TimeStep
2504,1,AIR VELO SCH,Schedule Value [] !TimeStep
2505,1,CLOTHING SCH,Schedule Value [] !TimeStep
2506,1,REHEAT COIL AVAILABILITY,Schedule Value [] !TimeStep
2507,1,HVACOPERATIONSCHD,Schedule Value [] !TimeStep
2508,1,BLDG LIGHT SCH,Schedule Value [] !TimeStep
2509,1,OLD BLDG EQUIP SCH,Schedule Value [] !TimeStep
2510,1,BLDG EQUIP SCH,Schedule Value [] !TimeStep
2511,1,BLDG OCC SCH,Schedule Value [] !TimeStep
2512,1,BLDG SWH SCH,Schedule Value [] !TimeStep
2513,1,ACTIVITY SCH,Schedule Value [] !TimeStep
2514,1,MINOA MOTORIZEDDAMPER SCHED,Schedule Value [] !TimeStep
2515,1,DUAL ZONE CONTROL TYPE SCHED,Schedule Value [] !TimeStep
2516,1,INFIL SCH PNNL,Schedule Value [] !TimeStep
2517,1,CW-LOOP-TEMP-SCHEDULE,Schedule Value [] !TimeStep
2518,1,HW-LOOP-TEMP-SCHEDULE,Schedule Value [] !TimeStep
2519,1,FRONTENTRY FANSCHED,Schedule Value [] !TimeStep
2520,1,FRONTENTRY COILSCHED,Schedule Value [] !TimeStep
2521,1,PLANTONSCHED,Schedule Value [] !TimeStep
2522,1,HTGSETP SCH,Schedule Value [] !TimeStep
2523,1,CLGSETP SCH CONSTANTON,Schedule Value [] !TimeStep
2524,1,CLGSETP SCH,Schedule Value [] !TimeStep
2525,1,CLGTEMPSETPOINT,Schedule Value [] !TimeStep
2526,1,FCU-CLGSETP SCH,Schedule Value [] !TimeStep
2527,1,PLANT LOOP HIGH TEMP SCHEDULE,Schedule Value [] !TimeStep
2528,1,PLANT LOOP LOW TEMP SCHEDULE,Schedule Value [] !TimeStep
2529,1,OLD BLDG CONTROLROOM EQUIP SCH,Schedule Value [] !TimeStep
2530,1,BLDG CONTROLROOM EQUIP SCH,Schedule Value [] !TimeStep
2531,1,SEASONAL-RESET-SUPPLY-AIR-TEMP-SCH,Schedule Value [] !TimeStep
2532,1,CLGSETP SCH BASE EXTENDEDHVAC2,Schedule Value [] !TimeStep
2533,1,CLGSETP SCH BASE EXTENDEDHVAC3,Schedule Value [] !TimeStep
2534,1,CLGSETP SCH BASE EXTENDEDHVAC,Schedule Value [] !TimeStep
2535,1,DR RESPONSE,Schedule Value [] !TimeStep
2536,1,CPP EVENT,Schedule Value [] !TimeStep
2537,1,DUTYCYCLETIMESTEPCOUNT,Schedule Value [] !TimeStep
2538,1,PREVIOUSFLOW1,Schedule Value [] !TimeStep
2539,1,PREVIOUSFLOW2,Schedule Value [] !TimeStep
2540,1,ALWAYS ON,Schedule Value [] !TimeStep
2541,1,HVAC SCHEDULE REST OF THE BUILDING,Schedule Value [] !TimeStep
2542,1,AF102,Schedule Value [] !TimeStep
2543,1,AF118,Schedule Value [] !TimeStep
2544,1,AF119,Schedule Value [] !TimeStep
2545,1,AF120,Schedule Value [] !TimeStep
2546,1,AF123A,Schedule Value [] !TimeStep
2547,1,AF123B,Schedule Value [] !TimeStep
2548,1,AF127A,Schedule Value [] !TimeStep
2549,1,AF127B,Schedule Value [] !TimeStep
2550,1,AF129,Schedule Value [] !TimeStep
2551,1,AF131,Schedule Value [] !TimeStep
2552,1,AF136,Schedule Value [] !TimeStep
2553,1,AF133,Schedule Value [] !TimeStep
2554,1,AF142,Schedule Value [] !TimeStep
2555,1,AF143,Schedule Value [] !TimeStep
2556,1,AF150,Schedule Value [] !TimeStep
2557,1,AFRESTROOM,Schedule Value [] !TimeStep
2558,1,AFCORRIDOR,Schedule Value [] !TimeStep
2559,1,AF104,Schedule Value [] !TimeStep
2560,1,AF105,Schedule Value [] !TimeStep
2561,1,AF107,Schedule Value [] !TimeStep
2562,1,AF108,Schedule Value [] !TimeStep
2563,1,AF112,Schedule Value [] !TimeStep
2564,1,AF116,Schedule Value [] !TimeStep
2599,1,AHU-001 FAN,Fan Electric Power [W] !TimeStep
2611,1,AHU-002 FAN,Fan Electric Power [W] !TimeStep
2613,1,AHU-003 FAN,Fan Electric Power [W] !TimeStep
2615,1,AHU-004 FAN,Fan Electric Power [W] !TimeStep
2934,1,DISTRICT COOLING,District Cooling Rate [W] !TimeStep
2949,1,ZONE-VAV-CORRIDOR VAV BOX OUTLET NODE,System Node Temperature [C] !TimeStep
2950,1,ZONE-VAV-CORRIDOR VAV BOX OUTLET NODE,System Node Mass Flow Rate [kg/s] !TimeStep
2951,1,ZONE-VAV-102 VAV BOX OUTLET NODE,System Node Temperature [C] !TimeStep
2952,1,ZONE-VAV-102 VAV BOX OUTLET NODE,System Node Mass Flow Rate [kg/s] !TimeStep
2953,1,ZONE-VAV-104 VAV BOX OUTLET NODE,System Node Temperature [C] !TimeStep
2954,1,ZONE-VAV-104 VAV BOX OUTLET NODE,System Node Mass Flow Rate [kg/s] !TimeStep
2955,1,ZONE-VAV-105 VAV BOX OUTLET NODE,System Node Temperature [C] !TimeStep
2956,1,ZONE-VAV-105 VAV BOX OUTLET NODE,System Node Mass Flow Rate [kg/s] !TimeStep
2957,1,ZONE-VAV-107 VAV BOX OUTLET NODE,System Node Temperature [C] !TimeStep
2958,1,ZONE-VAV-107 VAV BOX OUTLET NODE,System Node Mass Flow Rate [kg/s] !TimeStep
2959,1,ZONE-VAV-108 VAV BOX OUTLET NODE,System Node Temperature [C] !TimeStep
2960,1,ZONE-VAV-108 VAV BOX OUTLET NODE,System Node Mass Flow Rate [kg/s] !TimeStep
2961,1,ZONE-VAV-112 VAV BOX OUTLET NODE,System Node Temperature [C] !TimeStep
2962,1,ZONE-VAV-112 VAV BOX OUTLET NODE,System Node Mass Flow Rate [kg/s] !TimeStep
2963,1,ZONE-VAV-116 VAV BOX OUTLET NODE,System Node Temperature [C] !TimeStep
2964,1,ZONE-VAV-116 VAV BOX OUTLET NODE,System Node Mass Flow Rate [kg/s] !TimeStep
2965,1,ZONE-VAV-118 VAV BOX OUTLET NODE,System Node Temperature [C] !TimeStep
2966,1,ZONE-VAV-118 VAV BOX OUTLET NODE,System Node Mass Flow Rate [kg/s] !TimeStep
2967,1,ZONE-VAV-119 VAV BOX OUTLET NODE,System Node Temperature [C] !TimeStep
2968,1,ZONE-VAV-119 VAV BOX OUTLET NODE,System Node Mass Flow Rate [kg/s] !TimeStep
2969,1,ZONE-VAV-120 VAV BOX OUTLET NODE,System Node Temperature [C] !TimeStep
2970,1,ZONE-VAV-120 VAV BOX OUTLET NODE,System Node Mass Flow Rate [kg/s] !TimeStep
2971,1,ZONE-VAV-123A VAV BOX OUTLET NODE,System Node Temperature [C] !TimeStep
2972,1,ZONE-VAV-123A VAV BOX OUTLET NODE,System Node Mass Flow Rate [kg/s] !TimeStep
2973,1,ZONE-VAV-123B VAV BOX OUTLET NODE,System Node Temperature [C] !TimeStep
2974,1,ZONE-VAV-123B VAV BOX OUTLET NODE,System Node Mass Flow Rate [kg/s] !TimeStep
2975,1,ZONE-VAV-127A VAV BOX OUTLET NODE,System Node Temperature [C] !TimeStep
2976,1,ZONE-VAV-127A VAV BOX OUTLET NODE,System Node Mass Flow Rate [kg/s] !TimeStep
2977,1,ZONE-VAV-127B VAV BOX OUTLET NODE,System Node Temperature [C] !TimeStep
2978,1,ZONE-VAV-127B VAV BOX OUTLET NODE,System Node Mass Flow Rate [kg/s] !TimeStep
2979,1,ZONE-VAV-129 VAV BOX OUTLET NODE,System Node Temperature [C] !TimeStep
2980,1,ZONE-VAV-129 VAV BOX OUTLET NODE,System Node Mass Flow Rate [kg/s] !TimeStep
2981,1,ZONE-VAV-131 VAV BOX OUTLET NODE,System Node Temperature [C] !TimeStep
2982,1,ZONE-VAV-131 VAV BOX OUTLET NODE,System Node Mass Flow Rate [kg/s] !TimeStep
2983,1,ZONE-VAV-136 VAV BOX OUTLET NODE,System Node Temperature [C] !TimeStep
2984,1,ZONE-VAV-136 VAV BOX OUTLET NODE,System Node Mass Flow Rate [kg/s] !TimeStep
2985,1,ZONE-VAV-133 VAV BOX OUTLET NODE,System Node Temperature [C] !TimeStep
2986,1,ZONE-VAV-133 VAV BOX OUTLET NODE,System Node Mass Flow Rate [kg/s] !TimeStep
2987,1,ZONE-VAV-142 VAV BOX OUTLET NODE,System Node Temperature [C] !TimeStep
2988,1,ZONE-VAV-142 VAV BOX OUTLET NODE,System Node Mass Flow Rate [kg/s] !TimeStep
2989,1,ZONE-VAV-143 VAV BOX OUTLET NODE,System Node Temperature [C] !TimeStep
2990,1,ZONE-VAV-143 VAV BOX OUTLET NODE,System Node Mass Flow Rate [kg/s] !TimeStep
2991,1,ZONE-VAV-150 VAV BOX OUTLET NODE,System Node Temperature [C] !TimeStep
2992,1,ZONE-VAV-150 VAV BOX OUTLET NODE,System Node Mass Flow Rate [kg/s] !TimeStep
2993,1,ZONE-VAV-RESTROOM VAV BOX OUTLET NODE,System Node Temperature [C] !TimeStep
2994,1,ZONE-VAV-RESTROOM VAV BOX OUTLET NODE,System Node Mass Flow Rate [kg/s] !TimeStep
2995,1,ZONE-AHU-002 DIRECT AIR INLET NODE NAME,System Node Temperature [C] !TimeStep
2996,1,ZONE-AHU-002 DIRECT AIR INLET NODE NAME,System Node Mass Flow Rate [kg/s] !TimeStep
2997,1,ZONE-AHU-004 DIRECT AIR INLET NODE NAME,System Node Temperature [C] !TimeStep
2998,1,ZONE-AHU-004 DIRECT AIR INLET NODE NAME,System Node Mass Flow Rate [kg/s] !TimeStep
2999,1,AHU-001 OA COOLCNODE,System Node Temperature [C] !TimeStep
3000,1,AHU-003 OA COOLCNODE,System Node Temperature [C] !TimeStep
3001,1,AHU-004 OA COOLCNODE,System Node Temperature [C] !TimeStep
3002,1,AHU-001 SUPPLY EQUIPMENT INLET NODE,System Node Temperature [C] !TimeStep
3003,1,AHU-001 SUPPLY EQUIPMENT OUTLET NODE,System Node Temperature [C] !TimeStep
3004,1,AHU-001 SUPPLY EQUIPMENT OUTLET NODE,System Node Mass Flow Rate [kg/s] !TimeStep
3005,1,AHU-002 SUPPLY EQUIPMENT INLET NODE,System Node Temperature [C] !TimeStep
3006,1,AHU-002 OA COOLCNODE,System Node Temperature [C] !TimeStep
3007,1,AHU-002 SUPPLY EQUIPMENT OUTLET NODE,System Node Temperature [C] !TimeStep
3008,1,AHU-002 SUPPLY EQUIPMENT OUTLET NODE,System Node Mass Flow Rate [kg/s] !TimeStep
3009,1,AHU-003 SUPPLY EQUIPMENT INLET NODE,System Node Temperature [C] !TimeStep
3010,1,AHU-003 SUPPLY EQUIPMENT OUTLET NODE,System Node Temperature [C] !TimeStep
3011,1,AHU-003 SUPPLY EQUIPMENT OUTLET NODE,System Node Mass Flow Rate [kg/s] !TimeStep
3012,1,AHU-004 SUPPLY EQUIPMENT INLET NODE,System Node Temperature [C] !TimeStep
3013,1,AHU-004 SUPPLY EQUIPMENT OUTLET NODE,System Node Temperature [C] !TimeStep
3014,1,AHU-004 SUPPLY EQUIPMENT OUTLET NODE,System Node Mass Flow Rate [kg/s] !TimeStep
End of Data Dictionary
1,TYPICAL SUMMER WEEK,  46.27,-119.12,  -8.00, 136.00
2,1, 8,20, 1, 1, 0.00,15.00,Monday
6,18.
7,79.871840256
8,414.174139392
9,5.797149696
10,85.024862208
11,1592.283783168
12,1305.213389568
13,99.4136850432001
14,294.4753852416
15,188.2834944
16,500.3980701696
17,526.4604696576
18,3247.76640768
19,120.0604566528
20,80.4466003968
21,80.4466003968
22,2.011165009920002E-02
23,2453.96154368
24,185.731757568
25,87.2471029248
26,1370.8822130688
27,174.3777673728
28,1034.810962632
29,1077.928086075
30,7.0819987392
31,7.0819987392
32,19.6146188352
33,25.4870199936
34,508.6032666624
35,1708.589098944
36,6.0870071808
37,431.7613042176
38,98.7522153984
39,70.23469824
40,0.0
102,0.0
124,0.0
146,0.0
168,0.0
190,0.0
212,0.0
234,0.0
256,0.0
278,0.0
300,0.0
322,0.0
344,0.0
366,0.0
388,0.0
410,0.0
432,0.0
454,0.0
476,0.0
498,0.0
520,0.0
542,0.0
564,0.0
586,0.0
608,0.0
630,0.0
652,0.0
674,0.0
696,0.0
718,0.0
740,0.0
762,0.0
784,0.0
1189,0.0
1190,0.0
1191,0.0
1192,0.0
1193,0.0
1194,0.0
1195,0.0
1196,0.0
1197,0.0
1198,0.0
1199,0.0
1200,0.0
1201,0.0
1202,0.0
1203,0.0
1204,0.0
1205,0.0
1206,0.0
1207,0.0
1208,0.0
1209,0.0
1210,0.0
1211,0.0
1212,0.0
1213,0.0
1214,0.0
1215,0.0
1216,0.0
1217,0.0
1218,0.0
1219,0.0
1220,0.0
1221,0.0
1222,17.9612069115994
1223,22.281220247084
1224,17.7569826860698
1225,25.8256305276125
1226,24.7363971244129
1227,17.4702876857972
1228,20.5934766238477
1229,19.0267444689652
1230,22.1789266374229
1231,21.4683929034862
1232,21.0048527098222
1233,17.3585783396415
1234,17.4669006496795
1235,17.8454491587713
1236,31.6274210919398
1237,18.0177187188513
1238,28.5396357254918
1239,27.1370329424643
1240,33.7454816852839
1241,27.3473029121807
1242,26.2558209694017
1243,29.9681749136127
1244,23.1385128203563
1245,20.8662661708191
1246,27.7309928357043
1334,26.
1368,26.
1434,26.
1468,26.
1502,26.
1536,26.
1570,26.
1604,26.
1638,26.
1672,26.
1738,26.
1772,26.
1806,26.
1840,26.
1874,26.
1908,26.
1974,26.
2008,26.
2074,26.
2172,26.
2206,26.
2240,26.
2338,26.
2372,26.
2406,26.
2503,0.0
2504,0.2
2505,0.5
2506,0.0
2507,0.0
2508,0.0
2509,0.3
2510,0.48
2511,0.0
2512,0.0
2513,120.
2514,1.
2515,4.
2516,1.
2517,6.44
2518,60.
2519,1.
2520,1.
2521,1.
2522,15.6
2523,21.11
2524,26.
2525,26.
2526,26.
2527,18.33
2528,5.
2529,0.7
2530,0.48
2531,13.
2532,26.
2533,26.
2534,26.
2535,0.0
2536,0.0
2537,38.
2538,1.
2539,1.
2540,1.
2541,0.0
2542,1.
2543,1.
2544,1.
2545,1.
2546,1.
2547,1.
2548,1.
2549,1.
2550,1.
2551,1.
2552,1.
2553,1.
2554,1.
2555,1.
2556,1.
2557,1.
2558,1.
2559,1.
2560,1.
2561,1.
2562,1.
2563,1.
2564,1.
1257,8.
1258,0.0
1259,20.
1260,8.
1333,1650.07829917965
1367,3918.84484162363
1433,1541.24109892225
1467,5911.1308689736
1501,5297.3939888503
1535,1384.01914171386
1569,3061.31006453662
1603,2212.91303626642
1637,3909.11634586495
1671,3489.68989814066
1737,3287.67859849695
1771,1334.44430404522
1805,1392.44991850576
1839,1581.92662257886
1873,0.0
1907,1679.09192188671
1973,0.0
2007,0.0
2073,0.0
2171,0.0
2205,0.0
2239,0.0
2337,4416.36557741478
2371,3209.00949578081
2405,0.0
2500,17888.3691058483
2501,8398.3907192966
2502,26286.7598251449
2599,5472.36926378857
2611,0.0
2613,0.0
2615,0.0
2934,100339.2076391
2949,14.8469110833999
2950,0.515830688029253
2951,14.8469110833999
2952,0.515830688029253
2953,27.3496998930328
2954,0.0
2955,27.3496998930328
2956,0.0
2957,27.3496998930328
2958,0.0
2959,27.3496998930328
2960,0.0
2961,27.3496998930328
2962,0.0
2963,27.3496998930328
2964,0.0
2965,14.8469110833999
2966,0.515830688029253
2967,14.8469110833999
2968,0.515830688029253
2969,14.8469110833999
2970,0.515830688029253
2971,14.8469110833999
2972,0.515830688029253
2973,14.8469110833999
2974,0.515830688029253
2975,14.8469110833999
2976,0.515830688029253
2977,14.8469110833999
2978,0.515830688029253
2979,14.8469110833999
2980,0.515830688029253
2981,14.8469110833999
2982,0.515830688029253
2983,14.8469110833999
2984,0.515830688029253
2985,14.8469110833999
2986,0.515830688029253
2987,14.8469110833999
2988,0.515830688029253
2989,14.8469110833999
2990,0.515830688029253
2991,14.8469110833999
2992,0.515830688029253
2993,14.8469110833999
2994,0.515830688029253
2995,28.5426011643904
2996,0.0
2997,31.6300266153637
2998,0.0
2999,20.2644579751135
3000,27.3496998930328
3001,31.6300266153637
3002,20.7398235496186
3003,14.8469110833999
3004,8.7691216964973
3005,28.5426011643904
3006,28.5426011643904
3007,28.5426011643904
3008,0.0
3009,27.3496998930328
3010,27.3496998930328
3011,0.0
3012,31.6300266153637
3013,31.6300266153637
3014,0.0
2,1, 8,20, 1, 1,15.00,30.00,Monday
6,18.
7,79.871840256
8,414.174139392
9,5.797149696
10,85.024862208
11,1592.283783168
12,1305.213389568
13,99.4136850432001
14,294.4753852416
15,188.2834944
16,500.3980701696
17,526.4604696576
18,3247.76640768
19,120.0604566528
20,80.4466003968
21,80.4466003968
22,2.011165009920002E-02
23,2453.96154368
24,185.731757568
25,87.2471029248
26,1370.8822130688
27,174.3777673728
28,1034.810962632
29,1077.928086075
30,7.0819987392
31,7.0819987392
32,19.6146188352
33,25.4870199936
34,508.6032666624
35,1708.589098944
36,6.0870071808
37,431.7613042176
38,98.7522153984
39,70.23469824
40,0.0
102,0.0
124,0.0
146,0.0
168,0.0
190,0.0
212,0.0
234,0.0
256,0.0
278,0.0
300,0.0
322,0.0
344,0.0
366,0.0
388,0.0
410,0.0
432,0.0
454,0.0
476,0.0
498,0.0
520,0.0
542,0.0
564,0.0
586,0.0
608,0.0
630,0.0
652,0.0
674,0.0
696,0.0
718,0.0
740,0.0
762,0.0
784,0.0
1189,0.0
1190,0.0
1191,0.0
1192,0.0
1193,0.0
1194,0.0
1195,0.0
1196,0.0
1197,0.0
1198,0.0
1199,0.0
1200,0.0
1201,0.0
1202,0.0
1203,0.0
1204,0.0
1205,0.0
1206,0.0
1207,0.0
1208,0.0
1209,0.0
1210,0.0
1211,0.0
1212,0.0
1213,0.0
1214,0.0
1215,0.0
1216,0.0
1217,0.0
1218,0.0
1219,0.0
1220,0.0
1221,0.0
1222,17.73697354558
1223,21.3606789739101
1224,17.565730128998
1225,24.7856154998108
1226,23.7265759577112
1227,16.6681526673733
1228,19.7712744510606
1229,18.6203797692837
1230,21.0863335594828
1231,20.609992099709
1232,20.2838583905935
1233,17.1447491606547
1234,17.260049072485
1235,17.0215819942153
1236,31.5498716206347
1237,18.0598948665235
1238,28.4640861929157
1239,27.016982281782
1240,33.6941865357616
1241,27.2746807529355
1242,26.1844760202715
1243,29.8844785198357
1244,22.6093720333411
1245,20.0674492115116
1246,27.6309457742445
1334,26.
1368,26.
1434,26.
1468,26.
1502,26.
1536,26.
1570,26.
1604,26.
1638,26.
1672,26.
1738,26.
1772,26.
1806,26.
1840,26.
1874,26.
1908,26.
1974,26.
2008,26.
2074,26.
2172,26.
2206,26.
2240,26.
2338,26.
2372,26.
2406,26.
2503,0.0
2504,0.2
2505,0.5
2506,0.0
2507,0.0
2508,0.0
2509,0.3
2510,0.48
2511,0.0
2512,0.0
2513,120.
2514,1.
2515,4.
2516,1.
2517,6.44
2518,60.
2519,1.
2520,1.
2521,1.
2522,15.6
2523,21.11
2524,26.
2525,26.
2526,26.
2527,18.33
2528,5.
2529,0.7
2530,0.48
2531,13.
2532,26.
2533,26.
2534,26.
2535,0.0
2536,0.0
2537,39.
2538,1.
2539,1.
2540,1.
2541,0.0
2542,1.
2543,1.
2544,1.
2545,1.
2546,1.
2547,1.
2548,1.
2549,1.
2550,1.
2551,1.
2552,1.
2553,1.
2554,1.
2555,1.
2556,1.
2557,1.
2558,1.
2559,1.
2560,1.
2561,1.
2562,1.
2563,1.
2564,1.
1257,23.5714285714286
1258,0.0
1259,20.
1260,8.
1333,1935.54938003222
1367,3844.79040813111
1433,1845.17813013171
1467,5752.73393295958
1501,5159.5149337485
1535,1371.11610205774
1569,3018.93415177067
1603,2402.96993159903
1637,3723.02540227958
1671,3448.54421044496
1737,3298.70825483395
1771,1623.51460961264
1805,1684.40630761291
1839,1557.46991158977
1873,0.0
1907,2103.32142249273
1973,0.0
2007,0.0
2073,0.0
2171,0.0
2205,0.0
2239,0.0
2337,4541.1848328321
2371,3179.30904330863
2405,0.0
2500,17888.3691058483
2501,8398.32996844514
2502,26286.6990742934
2599,5472.36926378857
2611,0.0
2613,0.0
2615,0.0
2934,93612.9233866771
2949,14.0680991080703
2950,0.515830688029253