Program Version,EnergyPlus, Version 8.4.0-09f5359d8a, YMD=2018.11.20 22:24
1,5,Environment Title[],Latitude[deg],Longitude[deg],Time Zone[],Elevation[m]
2,6,Day of Simulation[],Month[],Day of Month[],DST Indicator[1=yes 0=no],Hour[],StartMinute[],EndMinute[],DayType
3,3,Cumulative Day of Simulation[],Month[],Day of Month[],DST Indicator[1=yes 0=no],DayType  ! When Daily Report Variables Requested
4,2,Cumulative Days of Simulation[],Month[]  ! When Monthly Report Variables Requested
5,1,Cumulative Days of Simulation[] ! When Run Period Report Variables Requested
6,1,Environment,Site Outdoor Air Drybulb Temperature [C] !TimeStep
1123,1,ZONE-VAV-143,Zone Mean Air Temperature [C] !TimeStep
1124,1,ZONE-VAV-142,Zone Mean Air Temperature [C] !TimeStep
1125,1,ZONE-VAV-136,Zone Mean Air Temperature [C] !TimeStep
1126,1,ZONE-VAV-127B,Zone Mean Air Temperature [C] !TimeStep
1127,1,ZONE-VAV-127A,Zone Mean Air Temperature [C] !TimeStep
1128,1,ZONE-VAV-131,Zone Mean Air Temperature [C] !TimeStep
1129,1,ZONE-VAV-129,Zone Mean Air Temperature [C] !TimeStep
1130,1,ZONE-VAV-150,Zone Mean Air Temperature [C] !TimeStep
1131,1,ZONE-VAV-123A,Zone Mean Air Temperature [C] !TimeStep
1132,1,ZONE-VAV-123B,Zone Mean Air Temperature [C] !TimeStep
1133,1,ZONE-VAV-118,Zone Mean Air Temperature [C] !TimeStep
1134,1,ZONE-VAV-120,Zone Mean Air Temperature [C] !TimeStep
1135,1,ZONE-VAV-119,Zone Mean Air Temperature [C] !TimeStep
1136,1,ZONE-VAV-RESTROOM,Zone Mean Air Temperature [C] !TimeStep
1137,1,ZONE-AHU-004,Zone Mean Air Temperature [C] !TimeStep
1138,1,ZONE-VAV-102,Zone Mean Air Temperature [C] !TimeStep
1139,1,ZONE-AHU-002,Zone Mean Air Temperature [C] !TimeStep
1140,1,ZONE-VAV-105,Zone Mean Air Temperature [C] !TimeStep
1141,1,ZONE-VAV-112,Zone Mean Air Temperature [C] !TimeStep
1142,1,ZONE-VAV-104,Zone Mean Air Temperature [C] !TimeStep
1143,1,ZONE-VAV-116,Zone Mean Air Temperature [C] !TimeStep
1144,1,ZONE-VAV-108,Zone Mean Air Temperature [C] !TimeStep
1145,1,ZONE-VAV-CORRIDOR,Zone Mean Air Temperature [C] !TimeStep
1146,1,ZONE-VAV-133,Zone Mean Air Temperature [C] !TimeStep
1147,1,ZONE-VAV-107,Zone Mean Air Temperature [C] !TimeStep
1158,1,EMS,currentMinuteV [] !TimeStep
1159,1,EMS,currentHourV [] !TimeStep
1160,1,EMS,currentDayOfMonthV [] !TimeStep
1161,1,EMS,currentMonthV [] !TimeStep
1234,1,ZONE-VAV-143,Zone Air System Sensible Cooling Rate [W] !TimeStep
1235,1,ZONE-VAV-143,Zone Thermostat Cooling Setpoint Temperature [C] !TimeStep
1268,1,ZONE-VAV-142,Zone Air System Sensible Cooling Rate [W] !TimeStep
1269,1,ZONE-VAV-142,Zone Thermostat Cooling Setpoint Temperature [C] !TimeStep
1334,1,ZONE-VAV-136,Zone Air System Sensible Cooling Rate [W] !TimeStep
1335,1,ZONE-VAV-136,Zone Thermostat Cooling Setpoint Temperature [C] !TimeStep
1368,1,ZONE-VAV-127B,Zone Air System Sensible Cooling Rate [W] !TimeStep
1369,1,ZONE-VAV-127B,Zone Thermostat Cooling Setpoint Temperature [C] !TimeStep
1402,1,ZONE-VAV-127A,Zone Air System Sensible Cooling Rate [W] !TimeStep
1403,1,ZONE-VAV-127A,Zone Thermostat Cooling Setpoint Temperature [C] !TimeStep
1436,1,ZONE-VAV-131,Zone Air System Sensible Cooling Rate [W] !TimeStep
1437,1,ZONE-VAV-131,Zone Thermostat Cooling Setpoint Temperature [C] !TimeStep
1470,1,ZONE-VAV-129,Zone Air System Sensible Cooling Rate [W] !TimeStep
1471,1,ZONE-VAV-129,Zone Thermostat Cooling Setpoint Temperature [C] !TimeStep
1504,1,ZONE-VAV-150,Zone Air System Sensible Cooling Rate [W] !TimeStep
1505,1,ZONE-VAV-150,Zone Thermostat Cooling Setpoint Temperature [C] !TimeStep
1538,1,ZONE-VAV-123A,Zone Air System Sensible Cooling Rate [W] !TimeStep
1539,1,ZONE-VAV-123A,Zone Thermostat Cooling Setpoint Temperature [C] !TimeStep
1572,1,ZONE-VAV-123B,Zone Air System Sensible Cooling Rate [W] !TimeStep
1573,1,ZONE-VAV-123B,Zone Thermostat Cooling Setpoint Temperature [C] !TimeStep
1638,1,ZONE-VAV-118,Zone Air System Sensible Cooling Rate [W] !TimeStep
1639,1,ZONE-VAV-118,Zone Thermostat Cooling Setpoint Temperature [C] !TimeStep
1672,1,ZONE-VAV-120,Zone Air System Sensible Cooling Rate [W] !TimeStep
1673,1,ZONE-VAV-120,Zone Thermostat Cooling Setpoint Temperature [C] !TimeStep
1706,1,ZONE-VAV-119,Zone Air System Sensible Cooling Rate [W] !TimeStep
1707,1,ZONE-VAV-119,Zone Thermostat Cooling Setpoint Temperature [C] !TimeStep
1740,1,ZONE-VAV-RESTROOM,Zone Air System Sensible Cooling Rate [W] !TimeStep
1741,1,ZONE-VAV-RESTROOM,Zone Thermostat Cooling Setpoint Temperature [C] !TimeStep
1774,1,ZONE-AHU-004,Zone Air System Sensible Cooling Rate [W] !TimeStep
1775,1,ZONE-AHU-004,Zone Thermostat Cooling Setpoint Temperature [C] !TimeStep
1808,1,ZONE-VAV-102,Zone Air System Sensible Cooling Rate [W] !TimeStep
1809,1,ZONE-VAV-102,Zone Thermostat Cooling Setpoint Temperature [C] !TimeStep
1874,1,ZONE-AHU-002,Zone Air System Sensible Cooling Rate [W] !TimeStep
1875,1,ZONE-AHU-002,Zone Thermostat Cooling Setpoint Temperature [C] !TimeStep
1908,1,ZONE-VAV-105,Zone Air System Sensible Cooling Rate [W] !TimeStep
1909,1,ZONE-VAV-105,Zone Thermostat Cooling Setpoint Temperature [C] !TimeStep
1974,1,ZONE-VAV-112,Zone Air System Sensible Cooling Rate [W] !TimeStep
1975,1,ZONE-VAV-112,Zone Thermostat Cooling Setpoint Temperature [C] !TimeStep
2072,1,ZONE-VAV-104,Zone Air System Sensible Cooling Rate [W] !TimeStep
2073,1,ZONE-VAV-104,Zone Thermostat Cooling Setpoint Temperature [C] !TimeStep
2106,1,ZONE-VAV-116,Zone Air System Sensible Cooling Rate [W] !TimeStep
2107,1,ZONE-VAV-116,Zone Thermostat Cooling Setpoint Temperature [C] !TimeStep
2140,1,ZONE-VAV-108,Zone Air System Sensible Cooling Rate [W] !TimeStep
2141,1,ZONE-VAV-108,Zone Thermostat Cooling Setpoint Temperature [C] !TimeStep
2238,1,ZONE-VAV-CORRIDOR,Zone Air System Sensible Cooling Rate [W] !TimeStep
2239,1,ZONE-VAV-CORRIDOR,Zone Thermostat Cooling Setpoint Temperature [C] !TimeStep
2272,1,ZONE-VAV-133,Zone Air System Sensible Cooling Rate [W] !TimeStep
2273,1,ZONE-VAV-133,Zone Thermostat Cooling Setpoint Temperature [C] !TimeStep
2306,1,ZONE-VAV-107,Zone Air System Sensible Cooling Rate [W] !TimeStep
2307,1,ZONE-VAV-107,Zone Thermostat Cooling Setpoint Temperature [C] !TimeStep
2401,1,Whole Building,Facility Total Building Electric Demand Power [W] !TimeStep
2402,1,Whole Building,Facility Total HVAC Electric Demand Power [W] !TimeStep
2403,1,Whole Building,Facility Total Electric Demand Power [W] !TimeStep
2404,1,WORK EFF SCH,Schedule Value [] !TimeStep
2405,1,AIR VELO SCH,Schedule Value [] !TimeStep
2406,1,CLOTHING SCH,Schedule Value [] !TimeStep
2407,1,REHEAT COIL AVAILABILITY,Schedule Value [] !TimeStep
2408,1,HVACOPERATIONSCHD,Schedule Value [] !TimeStep
2409,1,BLDG LIGHT SCH,Schedule Value [] !TimeStep
2410,1,OLD BLDG EQUIP SCH,Schedule Value [] !TimeStep
2411,1,BLDG EQUIP SCH,Schedule Value [] !TimeStep
2412,1,BLDG OCC SCH,Schedule Value [] !TimeStep
2413,1,BLDG SWH SCH,Schedule Value [] !TimeStep
2414,1,ACTIVITY SCH,Schedule Value [] !TimeStep
2415,1,MINOA MOTORIZEDDAMPER SCHED,Schedule Value [] !TimeStep
2416,1,DUAL ZONE CONTROL TYPE SCHED,Schedule Value [] !TimeStep
2417,1,INFIL SCH PNNL,Schedule Value [] !TimeStep
2418,1,CW-LOOP-TEMP-SCHEDULE,Schedule Value [] !TimeStep
2419,1,HW-LOOP-TEMP-SCHEDULE,Schedule Value [] !TimeStep
2420,1,FRONTENTRY FANSCHED,Schedule Value [] !TimeStep
2421,1,FRONTENTRY COILSCHED,Schedule Value [] !TimeStep
2422,1,PLANTONSCHED,Schedule Value [] !TimeStep
2423,1,HTGSETP SCH,Schedule Value [] !TimeStep
2424,1,CLGSETP SCH CONSTANTON,Schedule Value [] !TimeStep
2425,1,CLGSETP SCH,Schedule Value [] !TimeStep
2426,1,CLGTEMPSETPOINT,Schedule Value [] !TimeStep
2427,1,FCU-CLGSETP SCH,Schedule Value [] !TimeStep
2428,1,PLANT LOOP HIGH TEMP SCHEDULE,Schedule Value [] !TimeStep
2429,1,PLANT LOOP LOW TEMP SCHEDULE,Schedule Value [] !TimeStep
2430,1,OLD BLDG CONTROLROOM EQUIP SCH,Schedule Value [] !TimeStep
2431,1,BLDG CONTROLROOM EQUIP SCH,Schedule Value [] !TimeStep
2432,1,SEASONAL-RESET-SUPPLY-AIR-TEMP-SCH,Schedule Value [] !TimeStep
2433,1,CLGSETP SCH BASE EXTENDEDHVAC2,Schedule Value [] !TimeStep
2434,1,CLGSETP SCH BASE EXTENDEDHVAC3,Schedule Value [] !TimeStep
2435,1,CLGSETP SCH BASE EXTENDEDHVAC,Schedule Value [] !TimeStep
2436,1,DR RESPONSE,Schedule Value [] !TimeStep
2437,1,CPP EVENT,Schedule Value [] !TimeStep
2438,1,DUTYCYCLETIMESTEPCOUNT,Schedule Value [] !TimeStep
2439,1,PREVIOUSFLOW1,Schedule Value [] !TimeStep
2440,1,PREVIOUSFLOW2,Schedule Value [] !TimeStep
2441,1,ALWAYS ON,Schedule Value [] !TimeStep
2442,1,HVAC SCHEDULE REST OF THE BUILDING,Schedule Value [] !TimeStep
2595,1,ZONE-VAV-CORRIDOR VAV BOX COMPONENT,Zone Air Terminal VAV Damper Position [] !TimeStep
2596,1,ZONE-VAV-RESTROOM VAV BOX COMPONENT,Zone Air Terminal VAV Damper Position [] !TimeStep
2597,1,ZONE-VAV-102 VAV BOX COMPONENT,Zone Air Terminal VAV Damper Position [] !TimeStep
2598,1,ZONE-VAV-104 VAV BOX COMPONENT,Zone Air Terminal VAV Damper Position [] !TimeStep
2599,1,ZONE-VAV-105 VAV BOX COMPONENT,Zone Air Terminal VAV Damper Position [] !TimeStep
2600,1,ZONE-VAV-107 VAV BOX COMPONENT,Zone Air Terminal VAV Damper Position [] !TimeStep
2601,1,ZONE-VAV-108 VAV BOX COMPONENT,Zone Air Terminal VAV Damper Position [] !TimeStep
2602,1,ZONE-VAV-112 VAV BOX COMPONENT,Zone Air Terminal VAV Damper Position [] !TimeStep
2603,1,ZONE-VAV-116 VAV BOX COMPONENT,Zone Air Terminal VAV Damper Position [] !TimeStep
2604,1,ZONE-VAV-118 VAV BOX COMPONENT,Zone Air Terminal VAV Damper Position [] !TimeStep
2605,1,ZONE-VAV-119 VAV BOX COMPONENT,Zone Air Terminal VAV Damper Position [] !TimeStep
2606,1,ZONE-VAV-120 VAV BOX COMPONENT,Zone Air Terminal VAV Damper Position [] !TimeStep
2607,1,ZONE-VAV-123A VAV BOX COMPONENT,Zone Air Terminal VAV Damper Position [] !TimeStep
2608,1,ZONE-VAV-123B VAV BOX COMPONENT,Zone Air Terminal VAV Damper Position [] !TimeStep
2609,1,ZONE-VAV-127A VAV BOX COMPONENT,Zone Air Terminal VAV Damper Position [] !TimeStep
2610,1,ZONE-VAV-127B VAV BOX COMPONENT,Zone Air Terminal VAV Damper Position [] !TimeStep
2611,1,ZONE-VAV-129 VAV BOX COMPONENT,Zone Air Terminal VAV Damper Position [] !TimeStep
2612,1,ZONE-VAV-131 VAV BOX COMPONENT,Zone Air Terminal VAV Damper Position [] !TimeStep
2613,1,ZONE-VAV-136 VAV BOX COMPONENT,Zone Air Terminal VAV Damper Position [] !TimeStep
2614,1,ZONE-VAV-133 VAV BOX COMPONENT,Zone Air Terminal VAV Damper Position [] !TimeStep
2615,1,ZONE-VAV-142 VAV BOX COMPONENT,Zone Air Terminal VAV Damper Position [] !TimeStep
2616,1,ZONE-VAV-143 VAV BOX COMPONENT,Zone Air Terminal VAV Damper Position [] !TimeStep
2617,1,ZONE-VAV-150 VAV BOX COMPONENT,Zone Air Terminal VAV Damper Position [] !TimeStep
2652,1,AHU-001 FAN,Fan Electric Power [W] !TimeStep
2664,1,AHU-002 FAN,Fan Electric Power [W] !TimeStep
2666,1,AHU-003 FAN,Fan Electric Power [W] !TimeStep
2668,1,AHU-004 FAN,Fan Electric Power [W] !TimeStep
2881,1,DISTRICT COOLING,District Cooling Rate [W] !TimeStep
2896,1,ZONE-VAV-CORRIDOR VAV BOX OUTLET NODE,System Node Temperature [C] !TimeStep
2897,1,ZONE-VAV-CORRIDOR VAV BOX OUTLET NODE,System Node Mass Flow Rate [kg/s] !TimeStep
2898,1,ZONE-VAV-102 VAV BOX OUTLET NODE,System Node Temperature [C] !TimeStep
2899,1,ZONE-VAV-102 VAV BOX OUTLET NODE,System Node Mass Flow Rate [kg/s] !TimeStep
2900,1,ZONE-VAV-104 VAV BOX OUTLET NODE,System Node Temperature [C] !TimeStep
2901,1,ZONE-VAV-104 VAV BOX OUTLET NODE,System Node Mass Flow Rate [kg/s] !TimeStep
2902,1,ZONE-VAV-105 VAV BOX OUTLET NODE,System Node Temperature [C] !TimeStep
2903,1,ZONE-VAV-105 VAV BOX OUTLET NODE,System Node Mass Flow Rate [kg/s] !TimeStep
2904,1,ZONE-VAV-107 VAV BOX OUTLET NODE,System Node Temperature [C] !TimeStep
2905,1,ZONE-VAV-107 VAV BOX OUTLET NODE,System Node Mass Flow Rate [kg/s] !TimeStep
2906,1,ZONE-VAV-108 VAV BOX OUTLET NODE,System Node Temperature [C] !TimeStep
2907,1,ZONE-VAV-108 VAV BOX OUTLET NODE,System Node Mass Flow Rate [kg/s] !TimeStep
2908,1,ZONE-VAV-112 VAV BOX OUTLET NODE,System Node Temperature [C] !TimeStep
2909,1,ZONE-VAV-116 VAV BOX OUTLET NODE,System Node Temperature [C] !TimeStep
2910,1,ZONE-VAV-116 VAV BOX OUTLET NODE,System Node Mass Flow Rate [kg/s] !TimeStep
2911,1,ZONE-VAV-118 VAV BOX OUTLET NODE,System Node Temperature [C] !TimeStep
2912,1,ZONE-VAV-118 VAV BOX OUTLET NODE,System Node Mass Flow Rate [kg/s] !TimeStep
2913,1,ZONE-VAV-119 VAV BOX OUTLET NODE,System Node Temperature [C] !TimeStep
2914,1,ZONE-VAV-119 VAV BOX OUTLET NODE,System Node Mass Flow Rate [kg/s] !TimeStep
2915,1,ZONE-VAV-120 VAV BOX OUTLET NODE,System Node Temperature [C] !TimeStep
2916,1,ZONE-VAV-120 VAV BOX OUTLET NODE,System Node Mass Flow Rate [kg/s] !TimeStep
2917,1,ZONE-VAV-123A VAV BOX OUTLET NODE,System Node Temperature [C] !TimeStep
2918,1,ZONE-VAV-123A VAV BOX OUTLET NODE,System Node Mass Flow Rate [kg/s] !TimeStep
2919,1,ZONE-VAV-123B VAV BOX OUTLET NODE,System Node Temperature [C] !TimeStep
2920,1,ZONE-VAV-123B VAV BOX OUTLET NODE,System Node Mass Flow Rate [kg/s] !TimeStep
2921,1,ZONE-VAV-127A VAV BOX OUTLET NODE,System Node Temperature [C] !TimeStep
2922,1,ZONE-VAV-127A VAV BOX OUTLET NODE,System Node Mass Flow Rate [kg/s] !TimeStep
2923,1,ZONE-VAV-127B VAV BOX OUTLET NODE,System Node Temperature [C] !TimeStep
2924,1,ZONE-VAV-127B VAV BOX OUTLET NODE,System Node Mass Flow Rate [kg/s] !TimeStep
2925,1,ZONE-VAV-129 VAV BOX OUTLET NODE,System Node Temperature [C] !TimeStep
2926,1,ZONE-VAV-129 VAV BOX OUTLET NODE,System Node Mass Flow Rate [kg/s] !TimeStep
2927,1,ZONE-VAV-131 VAV BOX OUTLET NODE,System Node Temperature [C] !TimeStep
2928,1,ZONE-VAV-131 VAV BOX OUTLET NODE,System Node Mass Flow Rate [kg/s] !TimeStep
2929,1,ZONE-VAV-136 VAV BOX OUTLET NODE,System Node Temperature [C] !TimeStep
2930,1,ZONE-VAV-136 VAV BOX OUTLET NODE,System Node Mass Flow Rate [kg/s] !TimeStep
2931,1,ZONE-VAV-133 VAV BOX OUTLET NODE,System Node Temperature [C] !TimeStep
2932,1,ZONE-VAV-133 VAV BOX OUTLET NODE,System Node Mass Flow Rate [kg/s] !TimeStep
2933,1,ZONE-VAV-142 VAV BOX OUTLET NODE,System Node Temperature [C] !TimeStep
2934,1,ZONE-VAV-142 VAV BOX OUTLET NODE,System Node Mass Flow Rate [kg/s] !TimeStep
2935,1,ZONE-VAV-143 VAV BOX OUTLET NODE,System Node Temperature [C] !TimeStep
2936,1,ZONE-VAV-143 VAV BOX OUTLET NODE,System Node Mass Flow Rate [kg/s] !TimeStep
2937,1,ZONE-VAV-150 VAV BOX OUTLET NODE,System Node Temperature [C] !TimeStep
2938,1,ZONE-VAV-150 VAV BOX OUTLET NODE,System Node Mass Flow Rate [kg/s] !TimeStep
2939,1,ZONE-VAV-RESTROOM VAV BOX OUTLET NODE,System Node Temperature [C] !TimeStep
2940,1,ZONE-VAV-RESTROOM VAV BOX OUTLET NODE,System Node Mass Flow Rate [kg/s] !TimeStep
2941,1,ZONE-AHU-002 DIRECT AIR INLET NODE NAME,System Node Temperature [C] !TimeStep
2942,1,ZONE-AHU-002 DIRECT AIR INLET NODE NAME,System Node Mass Flow Rate [kg/s] !TimeStep
2943,1,ZONE-AHU-004 DIRECT AIR INLET NODE NAME,System Node Temperature [C] !TimeStep
2944,1,ZONE-AHU-004 DIRECT AIR INLET NODE NAME,System Node Mass Flow Rate [kg/s] !TimeStep
2945,1,AHU-001 OA COOLCNODE,System Node Temperature [C] !TimeStep
2946,1,AHU-003 OA COOLCNODE,System Node Temperature [C] !TimeStep
2947,1,AHU-004 OA COOLCNODE,System Node Temperature [C] !TimeStep
2948,1,AHU-001 SUPPLY EQUIPMENT INLET NODE,System Node Temperature [C] !TimeStep
2949,1,AHU-001 SUPPLY EQUIPMENT OUTLET NODE,System Node Temperature [C] !TimeStep
2950,1,AHU-001 SUPPLY EQUIPMENT OUTLET NODE,System Node Mass Flow Rate [kg/s] !TimeStep
2951,1,AHU-002 SUPPLY EQUIPMENT INLET NODE,System Node Temperature [C] !TimeStep
2952,1,AHU-002 OA COOLCNODE,System Node Temperature [C] !TimeStep
2953,1,AHU-002 SUPPLY EQUIPMENT OUTLET NODE,System Node Temperature [C] !TimeStep
2954,1,AHU-002 SUPPLY EQUIPMENT OUTLET NODE,System Node Mass Flow Rate [kg/s] !TimeStep
2955,1,AHU-003 SUPPLY EQUIPMENT INLET NODE,System Node Temperature [C] !TimeStep
2956,1,AHU-003 SUPPLY EQUIPMENT OUTLET NODE,System Node Temperature [C] !TimeStep
2957,1,AHU-003 SUPPLY EQUIPMENT OUTLET NODE,System Node Mass Flow Rate [kg/s] !TimeStep
2958,1,AHU-004 SUPPLY EQUIPMENT INLET NODE,System Node Temperature [C] !TimeStep
2959,1,AHU-004 SUPPLY EQUIPMENT OUTLET NODE,System Node Temperature [C] !TimeStep
2960,1,AHU-004 SUPPLY EQUIPMENT OUTLET NODE,System Node Mass Flow Rate [kg/s] !TimeStep
2961,1,AHU-001 HEAT RECOVERY OUTLET NODE,System Node Mass Flow Rate [kg/s] !TimeStep
End of Data Dictionary
1,TYPICAL SUMMER WEEK,  46.27,-119.12,  -8.00, 136.00
2,1, 8,20, 1, 1, 0.00,15.00,Monday
6,18.
1123,19.6728204306054
1124,21.1108147809454
1125,19.7075485129773
1126,20.9164775577481
1127,21.1107202556862
1128,21.1107594285743
1129,21.1107883838384
1130,20.7535989985813
1131,21.1108366668559
1132,21.1108324199452
1133,21.0073642429587
1134,21.1107359522569
1135,21.1107262630896
1136,24.4451228432935
1137,31.660799521422
1138,20.3418788219477
1139,28.5694365853691
1140,27.1481455844067
1141,33.7533185330897
1142,27.3830158125189
1143,26.2827021194266
1144,30.0120243689386
1145,21.1105924559573
1146,21.1106046762958
1147,27.7632423258338
1235,21.11
1269,21.11
1335,21.11
1369,21.11
1403,21.11
1437,21.11
1471,21.11
1505,21.11
1539,21.11
1573,21.11
1639,21.11
1673,21.11
1707,21.11
1741,21.11
1775,21.11
1809,21.11
1875,21.11
1909,21.11
1975,21.11
2073,21.11
2107,21.11
2141,21.11
2239,21.11
2273,21.11
2307,21.11
2404,0.0
2405,0.2
2406,0.5
2407,0.0
2408,1.
2409,0.0
2410,0.3
2411,0.48
2412,0.0
2413,0.0
2414,120.
2415,1.
2416,4.
2417,1.
2418,6.44
2419,60.
2420,1.
2421,1.
2422,1.
2423,0.6
2424,21.11
2425,21.11
2426,21.11
2427,26.
2428,18.33
2429,5.
2430,0.7
2431,0.48
2432,13.
2433,26.
2434,26.
2435,26.
2436,0.0
2437,0.0
2438,38.
2439,1.
2440,1.
2441,1.
2442,0.0
1158,15.
1159,0.0
1160,20.
1161,8.
1234,334.623670362841
1268,859.812769495372
1334,320.807587674128
1368,3155.88137870669
1402,2055.25826906074
1436,185.188021545326
1470,483.130994412846
1504,420.813995893515
1538,863.238951474886
1572,884.609065250638
1638,533.492412654456
1672,139.235573208383
1706,135.112055172007
1740,435.154494564946
1774,0.0
1808,1285.76025693189
1874,0.0
1908,0.0
1974,0.0
2072,0.0
2106,0.0
2140,0.0
2238,1786.46786329796
2272,390.23341326447
2306,0.0
2401,17888.3691058483
2402,2125.27993219373
2403,20013.649038042
2595,0.406183475552254
2596,1.
2597,0.3
2598,0.0
2599,0.0
2600,0.0
2601,0.0
2602,0.0
2603,0.0
2604,0.3
2605,0.405278699141366
2606,0.407887702653696
2607,0.392241760998757
2608,0.391291821594253
2609,0.329706120352877
2610,0.3
2611,0.417300835967867
2612,0.392234382483494
2613,0.3
2614,0.376499651920223
2615,0.119841840135159
2616,0.3
2617,0.3
2652,242.74736810965
2664,0.0
2666,0.0
2668,0.0
2881,11336.3504500719
2896,13.0001440026177
2897,0.215952184964756
2898,13.0001440026177
2899,0.171715609054383
2900,27.3854916883092
2901,0.0
2902,27.3854916883092
2903,0.0
2904,27.3854916883092
2905,0.0
2906,27.3854916883092
2907,0.0
2908,27.3854916883092
2909,27.3854916883092
2910,0.0
2911,13.0001440026177
2912,6.531552411541310E-002
2913,13.0001440026177
2914,1.633368300404596E-002
2915,13.0001440026177
2916,1.683228096721378E-002
2917,13.0001440026177
2918,0.104356443908029
2919,13.0001440026177
2920,0.106939043197325
2921,13.0001440026177
2922,0.248443906025249
2923,13.0001440026177
2924,0.390869590787844
2925,13.0001440026177
2926,5.840509999562561E-002
2927,13.0001440026177
2928,2.238813330550758E-002
2929,13.0001440026177
2930,4.690769831871632E-002
2931,13.0001440026177
2932,4.717146514959526E-002
2933,13.0001440026177
2934,0.103949587243104
2935,13.0001440026177
2936,4.918365465629366E-002
2937,13.0001440026177
2938,5.322032313166131E-002
2939,13.0001440026177
2940,3.728786320542480E-002
2941,28.5762539663089
2942,0.0
2943,31.6705453996508
2944,0.0
2945,18.8001073059567
2946,27.3854916883092
2947,31.6705453996508
2948,20.9835724346073
2949,12.999695817967
2950,1.75527209103019
2951,28.5762539663089
2952,28.5762539663089
2953,28.5762539663089
2954,0.0
2955,27.3854916883092
2956,27.3854916883092
2957,0.0
2958,31.6705453996508
2959,31.6705453996508
2960,0.0
2961,1.28488293939784
2,1, 8,20, 1, 1,15.00,30.00,Monday
6,18.
1123,19.6161258838798
1124,21.1105194566867
1125,19.6554310403584
1126,20.8895396249125
1127,21.1104613083223
1128,21.1105046014913
1129,21.1105234077097
1130,20.7171672437266
1131,21.1105424057697
1132,21.1105409343612
1133,20.9919035225078
1134,21.11050126254
1135,21.1104952620957
1136,24.3926618567683
1137,31.5551688836626
1138,20.3105674667601
1139,28.4688534472525
1140,27.0264684712303
1141,33.6870149190585
1142,27.285180724239
1143,26.1904151539826
1144,29.8995744639372
1145,21.1103979541405
1146,21.1104020413834
1147,27.6445462773126
1235,21.11
1269,21.11
1335,21.11
1369,21.11
1403,21.11
1437,21.11
1471,21.11
1505,21.11
1539,21.11
1573,21.11
1639,21.11
1673,21.11
1707,21.11
1741,21.11
1775,21.11
1809,21.11
1875,21.11
1909,21.11
1975,21.11
2073,21.11
2107,21.11
2141,21.11
2239,21.11
2273,21.11
2307,21.11
2404,0.0
2405,0.2
2406,0.5
2407,0.0
2408,1.
2409,0.0
2410,0.3
2411,0.48
2412,0.0
2413,0.0
2414,120.
2415,1.
2416,4.
2417,1.
2418,6.44
2419,60.
2420,1.
2421,1.
2422,1.
2423,0.6
2424,21.11
2425,21.11
2426,21.11
2427,26.
2428,18.33
2429,5.
2430,0.7
2431,0.48
2432,13.
2433,26.
2434,26.
2435,26.
2436,0.0
2437,0.0
2438,39.
2439,1.
2440,1.
2441,1.
2442,0.0
1158,26.25
1159,0.0
1160,20.
1161,8.
1234,331.68555937289
1268,816.569498138466
1334,318.22422815757
1368,3144.45509124939
1402,1997.07946322238
1436,180.7951984731
1470,477.308446377798
1504,418.731327822567
1538,847.795030754139
1572,870.22033235002
1638,532.350980714981
1672,137.560194353342
1706,133.458806786793
1740,433.047897468239
1774,0.0
1808,1279.95944363186
1874,0.0
1908,0.0
1974,0.0
2072,0.0
2106,0.0
2140,0.0
2238,1737.04410669994
2272,381.504634652555
2306,0.0
2401,17888.3691058483
2402,2121.22792167161
2403,20009.5970275199
2595,0.395028930622537
2596,1.
2597,0.3
2598,0.0
2599,0.0
2600,0.0
2601,0.0
2602,0.0
2603,0.0
2604,0.3
2605,0.400421586469734
2606,0.403083418445166
2607,0.385326728281975
2608,0.385028511767758
2609,0.320446209230088
2610,0.3
2611,0.41237715188921
2612,0.383032266216088
2613,0.3
2614,0.368153189662834
2615,0.113845901170356
2616,0.3
2617,0.3
2652,238.698949149874
2664,0.0
2666,0.0
2668,0.0
2881,11221.9878598446
2896,13.0005140010444
2897,0.210021740978612
2898,13.0005140010444
2899,0.171715609054383
2900,27.3518962244156
2901,0.0
2902,27.3518962244156
2903,0.0
2904,27.3518962244156
2905,0.0
2906,27.3518962244156
2907,0.0
2908,27.3518962244156
2909,27.3518962244156
2910,0.0
2911,13.0005140010444
2912,6.531552411541310E-002
2913,13.0005140010444
2914,1.613792996086491E-002
2915,13.0005140010444
2916,1.663402281645758E-002
2917,13.0005140010444
2918,0.10251669022654
2919,13.0005140010444
2920,0.105227296814881
2921,13.0005140010444
2922,0.241466272469858
2923,13.0005140010444
2924,0.390869590787844
2925,13.0005140010444
2926,5.771598500669002E-002
2927,13.0005140010444
2928,2.186289070850980E-002
2929,13.0005140010444
2930,4.690769831871632E-002
2931,13.0005140010444
2932,4.612574080034602E-002
2933,13.0005140010444
2934,9.874877106886014E-002
2935,13.0005140010444
2936,4.918365465629366E-002
2937,13.0005140010444
2938,5.322032313166131E-002
2939,13.0005140010444
2940,3.728786320542480E-002
2941,28.5378713720956
2942,0.0
2943,31.627065670326
2944,0.0
2945,18.764409468769
2946,27.3518962244156
2947,31.627065670326
2948,20.9641864243022
2949,13.0000791373469
2950,1.73095760412135
2951,28.5378713720956
2952,28.5378713720956
2953,28.5378713720956
2954,0.0
2955,27.3518962244156
2956,27.3518962244156
2957,0.0
2958,31.627065670326
2959,31.627065670326
2960,0.0
2961,1.28488293939784
2,1, 8,20, 1, 1,30.00,45.00,Monday
6,18.
1123,19.5420077886838
1124,21.1105395467299
1125,19.5865172909382
1126,20.8432645083629
1127,21.1104899390219
1128,21.1105343949481
1129,21.1105629851233
1130,20.665175300353
1131,21.1105773989286
1132,21.110577415478
1133,20.9689820176066
1134,21.1105397016859
1135,21.1105332903166
1136,24.3295242938645
1137,31.3914092394502
1138,20.2613520819851
1139,28.3033005534176
1140,26.8145989669141
1141,33.5928210717296
1142,27.125988865589
1143,26.0390723922646
1144,29.7189380550793
1145,21.1104254956466
1146,21.1104327123884
1147,27.4419254198594
1235,21.11
1269,21.11
1335,21.11
1369,21.11
1403,21.11
1437,21.11
1471,21.11
1505,21.11
1539,21.11
1573,21.11
1639,21.11
1673,21.11
1707,21.11
1741,21.11
1775,21.11
1809,21.11
1875,21.11
1909,21.11
1975,21.11
2073,21.11
2107,21.11
2141,21.11
2239,21.11
2273,21.11
2307,21.11
2404,0.0
2405,0.2
2406,0.5
2407,0.0
2408,1.
2409,0.0
2410,0.3
2411,0.48
2412,0.0
2413,0.0
2414,120.
2415,1.
2416,4.
2417,1.
2418,6.44
2419,60.
2420,1.
2421,1.
2422,1.
2423,0.6
2424,21.11
2425,21.11
2426,21.11
2427,26.
2428,18.33
2429,5.
2430,0.7
2431,0.48
2432,13.
2433,26.
2434,26.
2435,26.
2436,0.0
2437,0.0
2438,40.
2439,1.
2440,1.
2441,1.
2442,0.0
1158,41.25
1159,0.0
1160,20.
1161,8.
1234,327.880352065718
1268,775.980243409418
1334,314.843814238558
1368,3125.35408454014
1402,1939.12797706366
1436,176.402912560703
1470,471.430818141351
1504,415.808678242279
1538,832.360377701359
1572,855.843265709502
1638,530.720889217273
1672,135.883898107894
1706,131.804762009087
1740,430.532875203483
1774,0.0
1808,1271.04740687199
1874,0.0
1908,0.0
1974,0.0
2072,0.0
2106,0.0
2140,0.0
2238,1687.69743809866
2272,372.623740564749
2306,0.0
2401,17888.3691058483
2402,2117.25077678409
2403,20005.6198826324
2595,0.383872427064514
2596,1.
2597,0.3
2598,0.0
2599,0.0
2600,0.0
2601,0.0
2602,0.0
2603,0.0
2604,0.3
2605,0.395540296552473
2606,0.398254242957067
2607,0.378391878165861
2608,0.378746335253392
2609,0.311203691211715
2610,0.3
2611,0.407381998730712
2612,0.373809789447842
2613,0.3
2614,0.359641331344408
2615,0.108210625715402
2616,0.3
2617,0.3
2652,234.731592247827
2664,0.0
2666,0.0
2668,0.0
2881,11091.776318933
2896,13.0005392437074
2897,0.204090255664872
2898,13.0005392437074
2899,0.171715609054383
2900,27.2240919760189
2901,0.0
2902,27.2240919760189
2903,0.0
2904,27.2240919760189
2905,0.0
2906,27.2240919760189
2907,0.0
2908,27.2240919760189
2909,27.2240919760189
2910,0.0
2911,13.0005392437074
2912,6.531552411541310E-002
2913,13.0005392437074
2914,1.594120251792674E-002
2915,13.0005392437074
2916,1.643473747854023E-002
2917,13.0005392437074
2918,0.100671664099516
2919,13.0005392437074
2920,0.10351039421542
2921,13.0005392437074
2922,0.234501745164341
2923,13.0005392437074
2924,0.390869590787844
2925,13.0005392437074
2926,5.701686726100207E-002
2927,13.0005392437074
2928,2.133648596554175E-002
2929,13.0005392437074
2930,4.690769831871632E-002
2931,13.0005392437074
2932,4.505929405603139E-002
2933,13.0005392437074
2934,9.386079073675693E-002
2935,13.0005392437074
2936,4.918365465629366E-002
2937,13.0005392437074
2938,5.322032313166131E-002
2939,13.0005392437074
2940,3.728786320542480E-002
2941,28.4052080035348
2942,0.0
2943,31.4912070984015
2944,0.0
2945,18.7278626979616
2946,27.2240919760189
2947,31.4912070984015
2948,20.9416990596382
2949,13.0000876920552
2950,1.70692370042968
2951,28.4052080035348
2952,28.4052080035348
2953,28.4052080035348
2954,0.0
2955,27.2240919760189
2956,27.2240919760189
2957,0.0
2958,31.4912070984015
2959,31.4912070984015
2960,0.0
2961,1.28488293939784
2,1, 8,20, 1, 1,45.00,60.00,Monday
6,18.
1123,19.481658357541
1124,21.1105119614114
1125,19.5308828631551
1126,20.8041087579189
1127,21.1104901974555
1128,21.1105172236878
1129,21.11056259256
1130,20.6229427763472
1131,21.1105684393896
1132,21.110571619096
1133,20.9501639237737
1134,21.1105372932826
1135,21.1105317614356
1136,24.2687861629903
1137,31.2321227013094
1138,20.2227730788551
1139,28.1334370386751
1140,26.6349097796268
1141,33.5052291561241
1142,26.9835637792132
1143,25.9169472667018
1144,29.5400324052382
1145,21.1104293389651
1146,21.1104418139887
1147,27.2633548555964
1235,21.11
1269,21.11
1335,21.11
1369,21.11
1403,21.11
1437,21.11
1471,21.11
1505,21.11
1539,21.11
1573,21.11
1639,21.11
1673,21.11
1707,21.11
1741,21.11
1775,21.11
1809,21.11
1875,21.11
1909,21.11
1975,21.11
2073,21.11
2107,21.11
2141,21.11
2239,21.11
2273,21.11
2307,21.11
2404,0.0
2405,0.2
2406,0.5
2407,0.0
2408,1.
2409,0.0
2410,0.3
2411,0.48
2412,0.0
2413,0.0
2414,120.
2415,1.
2416,4.
2417,1.
2418,6.44
2419,60.
2420,1.
2421,1.
2422,1.
2423,0.6
2424,21.11
2425,21.11
2426,21.11
2427,26.
2428,18.33
2429,5.
2430,0.7
2431,0.48
2432,13.
2433,26.
2434,26.
2435,26.
2436,0.0
2437,0.0
2438,41.
2439,1.
2440,1.
2441,1.
2442,0.0
1158,56.25
1159,0.0
1160,20.
1161,8.
1234,324.773989516505
1268,735.846421445483
1334,312.104180378138
1368,3108.97656423095
1402,1881.20424379953
1436,172.022914965037
1470,465.549816006766
1504,413.406227503572
1538,817.009034530834
1572,841.509404640456
1638,529.340267004319
1672,134.204364766691
1706,130.147934852878
1740,428.111196414619
1774,0.0
1808,1263.95681923988
1874,0.0
1908,0.0
1974,0.0
2072,0.0
2106,0.0
2140,0.0
2238,1638.51244762465
2272,363.567414024555
2306,0.0
2401,17888.3691058483
2402,2113.36870847041
2403,20001.7378143187
2595,0.37276522220821
2596,1.
2597,0.3
2598,0.0
2599,0.0
2600,0.0
2601,0.0
2602,0.0
2603,0.0
2604,0.3
2605,0.390665285672191
2606,0.393430150440089
2607,0.371507786830214
2608,0.372496682315572
2609,0.301975773617224
2610,0.3
2611,0.402399110125324
2612,0.364623974812142
2613,0.3
2614,0.350972392159942
2615,0.102640378343716
2616,0.3
2617,0.3
2652,230.814158620401
2664,0.0
2666,0.0
2668,0.0
2881,10973.1921624799
2896,13.0005221926921
2897,0.198184980581219
2898,13.0005221926921
2899,0.171715609054383
2900,27.069548180086
2901,0.0
2902,27.069548180086
2903,0.0
2904,27.069548180086
2905,0.0
2906,27.069548180086
2907,0.0
2908,27.069548180086
2909,27.069548180086
2910,0.0
2911,13.0005221926921
2912,6.531552411541310E-002
2913,13.0005221926921
2914,1.574472813491944E-002
2915,13.0005221926921
2916,1.623566189933224E-002
2917,13.0005221926921
2918,9.884014241376517E-002
2919,13.0005221926921
2920,0.101802380225343
2921,13.0005221926921
2922,0.2275482197363
2923,13.0005221926921
2924,0.390869590787844
2925,13.0005221926921
2926,5.631946605261540E-002
2927,13.0005221926921
2928,2.081217384052710E-002
2929,13.0005221926921
2930,4.690769831871632E-002
2931,13.0005221926921
2932,4.397316672354019E-002
2933,13.0005221926921
2934,8.902921509943601E-002